********************************************************************************
*                       GENERAL UTILITY LATTICE PROGRAM                        *
*                                 Julian Gale                                  *
*                      Nanochemistry Research Institute                        *
*                           Department of Chemistry                            *
*                    Curtin University, Western Australia                      *
********************************************************************************
* Version = 4.2.0 * Last modified =  25th March 2014                           *
********************************************************************************
*  single       - perform a single point run                                   *
*  property     - calculate properties for final geometry                      *
*  phonon       - calculate phonons for final geometry                         *
*  scatter      - calculate inelastic neutron scattering for final geometry    *
********************************************************************************

  Job Started  at 14:56.27 20th June       2020                               

  Number of CPUs =     1


  Total number of configurations input =   1

********************************************************************************
*  Input for Configuration =   1                                               *
********************************************************************************

  Formula = Al                                                          

  Number of irreducible atoms/shells =       1


  Total number atoms/shells =       1

  Dimensionality = 3               :  Bulk   


  Symmetry :

  Crystal family                   :  Cubic       
  Crystal class  (Groth - 1921)    :  Cubic Hexakisoctahedral              

  Space group (centrosymmetric)    :  F M 3 M         

  Patterson group                  :  F m -3 m 

  Cartesian lattice vectors (Angstroms) :

        0.000000    2.025000    2.025000
        2.025000    0.000000    2.025000
        2.025000    2.025000    0.000000

  Primitive cell parameters :            Full cell parameters :

  a =   2.8638    alpha =  60.0000       a =   4.0500    alpha =  90.0000
  b =   2.8638    beta  =  60.0000       b =   4.0500    beta  =  90.0000
  c =   2.8638    gamma =  60.0000       c =   4.0500    gamma =  90.0000

  Initial volumes (Angstroms**3):

  Primitive cell =          16.607531    Full cell =          66.430125

  Temperature of configuration =  0.000     K 

  Pressure of configuration =         0.000 GPa 

  Fractional coordinates of asymmetric unit :

--------------------------------------------------------------------------------
   No.  Atomic       x           y          z         Charge      Occupancy
        Label      (Frac)      (Frac)     (Frac)        (e)         (Frac)  
--------------------------------------------------------------------------------
      1 Al    c    0.000000    0.000000    0.000000     0.00000    1.000000    
--------------------------------------------------------------------------------



********************************************************************************
*  General input information                                                   *
********************************************************************************

  Species output for all configurations : 

--------------------------------------------------------------------------------
  Species    Type    Atomic    Atomic    Charge       Radii (Angs)     Library
                     Number     Mass       (e)     Cova   Ionic  VDW   Symbol
--------------------------------------------------------------------------------
    Al       Core       13      26.98   0.000000   1.350  0.000  2.050          
--------------------------------------------------------------------------------


  Lattice summation method               =    Ewald          (3-D)
                                         =    Parry          (2-D)
                                         =    Saunders et al (1-D)
  Accuracy factor for lattice sums       =   12.000


  Time limit = Infinity

  Maximum range for interatomic potentials =    100000.000000 Angstroms

  General interatomic potentials :

--------------------------------------------------------------------------------
Atom  Types   Potential         A         B         C         D     Cutoffs(Ang)
  1     2                                                            Min    Max 
--------------------------------------------------------------------------------
Al   c Al   c Lennard 12  6 0.444E+05  136.      0.00      0.00     0.000 12.000
--------------------------------------------------------------------------------

********************************************************************************
*  Output for configuration   1                                                *
********************************************************************************


  Components of energy : 

--------------------------------------------------------------------------------
  Interatomic potentials     =          -0.88383049 eV
  Monopole - monopole (real) =           0.00000000 eV
  Monopole - monopole (recip)=           0.00000000 eV
  Monopole - monopole (total)=           0.00000000 eV
--------------------------------------------------------------------------------
  Total lattice energy : 
    Primitive unit cell      =          -0.88383049 eV
    Non-primitive unit cell  =          -3.53532196 eV
--------------------------------------------------------------------------------
  Total lattice energy (in kJmol-1): 
    Primitive unit cell      =             -85.2761 kJ/(mole unit cells)
    Non-primitive unit cell  =            -341.1045 kJ/(mole unit cells)
--------------------------------------------------------------------------------


  Elastic Constant Matrix: (Units=GPa)

-------------------------------------------------------------------------------
  Indices      1         2         3         4         5         6    
-------------------------------------------------------------------------------
       1     95.7030   54.6562   54.6562   -0.0000   -0.0000    0.0000
       2     54.6562   95.7030   54.6562    0.0000    0.0000    0.0000
       3     54.6562   54.6562   95.7030    0.0000   -0.0000   -0.0000
       4     -0.0000    0.0000    0.0000   54.6353   -0.0000    0.0000
       5     -0.0000    0.0000   -0.0000   -0.0000   54.6353   -0.0000
       6      0.0000    0.0000   -0.0000    0.0000   -0.0000   54.6353
-------------------------------------------------------------------------------


  Elastic Compliance Matrix: (Units=1/GPa)

-------------------------------------------------------------------------------
  Indices      1         2         3         4         5         6    
-------------------------------------------------------------------------------
       1    0.017868 -0.006495 -0.006495  0.000000  0.000000 -0.000000
       2   -0.006495  0.017868 -0.006495 -0.000000 -0.000000 -0.000000
       3   -0.006495 -0.006495  0.017868 -0.000000  0.000000  0.000000
       4    0.000000 -0.000000 -0.000000  0.018303  0.000000 -0.000000
       5    0.000000 -0.000000  0.000000  0.000000  0.018303  0.000000
       6   -0.000000 -0.000000  0.000000 -0.000000  0.000000  0.018303
-------------------------------------------------------------------------------

  Mechanical properties :

-------------------------------------------------------------------------------
  Convention :                    Reuss         Voigt         Hill
-------------------------------------------------------------------------------
  Bulk  Modulus (GPa)     =      68.33849      68.33849      68.33849
  Shear Modulus (GPa)     =      32.81718      40.99057      36.90387
-------------------------------------------------------------------------------
  Velocity S-wave (km/s)  =       3.48782       3.89803       3.69862
  Velocity P-wave (km/s)  =       6.44609       6.75216       6.60090
-------------------------------------------------------------------------------
  Compressibility (1/GPa) =    0.01463304
-------------------------------------------------------------------------------
  Stress axis :                     x             y             z
-------------------------------------------------------------------------------
  Youngs Moduli (GPa)     =      55.96750      55.96750      55.96750
-------------------------------------------------------------------------------
  Poissons Ratio (x)      =                     0.36350       0.36350
  Poissons Ratio (y)      =       0.36350                     0.36350
  Poissons Ratio (z)      =       0.36350       0.36350
-------------------------------------------------------------------------------


  Piezoelectric Strain Matrix: (Units=C/m**2)

-------------------------------------------------------------------------------
  Indices      1         2         3         4         5         6    
-------------------------------------------------------------------------------
       x     0.00000   0.00000   0.00000   0.00000   0.00000   0.00000
       y     0.00000   0.00000   0.00000   0.00000   0.00000   0.00000
       z     0.00000   0.00000   0.00000   0.00000   0.00000   0.00000
-------------------------------------------------------------------------------


  Piezoelectric Stress Matrix: (Units=10**-11 C/N)

-------------------------------------------------------------------------------
  Indices      1         2         3         4         5         6    
-------------------------------------------------------------------------------
       x     0.00000   0.00000   0.00000   0.00000   0.00000   0.00000
       y     0.00000   0.00000   0.00000   0.00000   0.00000   0.00000
       z     0.00000   0.00000   0.00000   0.00000   0.00000   0.00000
-------------------------------------------------------------------------------


  Static dielectric constant tensor : 

-------------------------------------------------------------------------------
              x         y         z
-------------------------------------------------------------------------------
       x     1.00000   0.00000   0.00000
       y     0.00000   1.00000   0.00000
       z     0.00000   0.00000   1.00000
--------------------------------------------------------------------------------

  Static refractive indices : 

-------------------------------------------------------------------------------
    1 =    1.00000      2 =    1.00000      3 =    1.00000
-------------------------------------------------------------------------------


  Phonon Calculation : 

  K direction for n-a correction at gamma =  1.00000  1.00000  1.00000

  Number of k points for this configuration =        1

--------------------------------------------------------------------------------
  K point      1 =   0.000000  0.000000  0.000000  Weight =    1.000
--------------------------------------------------------------------------------

  Frequencies (cm-1) [NB: Negative implies an imaginary mode]:

    0.00    0.00    0.00


--------------------------------------------------------------------------------
  Phonon properties (per mole of unit cells): Temperature =      0.000 K
--------------------------------------------------------------------------------
  Zero point energy            =        0.000000 eV
--------------------------------------------------------------------------------

  Phonon density of states : 

--------------------------------------------------------------------------------
 Frequency (cm-1) Density of States                                             
--------------------------------------------------------------------------------
    0.00000 |                                                              0.000
    0.00000 |                                                              0.000
    0.00000 |                                                              0.000
    0.00000 |                                                              0.000
    0.00000 |                                                              0.000
    0.00000 |                                                              0.000
    0.00001 |                                                              0.000
    0.00001 |                                                              0.000
    0.00001 |                                                              0.000
    0.00001 |                                                              0.000
    0.00001 |                                                              0.000
    0.00001 |                                                              0.000
    0.00001 |                                                              0.000
    0.00001 |                                                              0.000
    0.00001 |                                                              0.000
    0.00001 |                                                              0.000
    0.00002 |                                                              0.000
    0.00002 |                                                              0.000
    0.00002 |                                                              0.000
    0.00002 |                                                              0.000
    0.00002 |                                                              0.000
    0.00002 |                                                              0.000
    0.00002 |                                                              0.000
    0.00002 |                                                              0.000
    0.00002 |                                                              0.000
    0.00002 |                                                              0.000
    0.00003 |                                                              0.000
    0.00003 |                                                              0.000
    0.00003 |                                                              0.000
    0.00003 |                                                              0.000
    0.00003 |                                                              0.000
    0.00003 |                                                              0.000
    0.00003 |                                                              0.000
    0.00003 |                                                              0.000
    0.00003 |                                                              0.000
    0.00003 |                                                              0.000
    0.00004 |                                                              0.000
    0.00004 |                                                              0.000
    0.00004 |                                                              0.000
    0.00004 |                                                              0.000
    0.00004 |                                                              0.000
    0.00004 |                                                              0.000
    0.00004 |                                                              0.000
    0.00004 |                                                              0.000
    0.00004 |                                                              0.000
    0.00004 |                                                              0.000
    0.00005 |                                                              0.000
    0.00005 |                                                              0.000
    0.00005 |                                                              0.000
    0.00005 |                                                              0.000
    0.00005 |                                                              0.000
    0.00005 |                                                              0.000
    0.00005 |                                                              0.000
    0.00005 |                                                              0.000
    0.00005 |                                                              0.000
    0.00005 |                                                              0.000
    0.00006 |                                                              0.000
    0.00006 |                                                              0.000
    0.00006 |                                                              0.000
    0.00006 |                                                              0.000
    0.00006 |                                                              0.000
    0.00006 |                                                              0.000
    0.00006 |                                                              0.000
    0.00006 |                                                              0.000
--------------------------------------------------------------------------------



  Time to end of properties =    3459.6800 seconds


  Peak dynamic memory used =    1944.67 MB 


  Timing analysis for GULP :

--------------------------------------------------------------------------------
  Task / Subroutine                                          Time (Seconds)
--------------------------------------------------------------------------------
  Calculation of real space energy and derivatives             3112.6200
  Calculation of phonons                                       3257.1400
  Calculation of scattering                                     191.4560
  Symmetry generation of equivalent positions                     0.0040
--------------------------------------------------------------------------------
  Total CPU time                                               3459.6800
--------------------------------------------------------------------------------


  Dump file written as al.res                                                  


  Job Finished at 15:55.42 20th June       2020                               

