********************************************************************************
*                       GENERAL UTILITY LATTICE PROGRAM                        *
*                                 Julian Gale                                  *
*                      Nanochemistry Research Institute                        *
*                           Department of Chemistry                            *
*                    Curtin University, Western Australia                      *
********************************************************************************
* Version = 4.2.0 * Last modified =  25th March 2014                           *
********************************************************************************
*  optimise     - perform optimisation run                                     *
*  conp         - constant pressure calculation                                *
*  property     - calculate properties for final geometry                      *
*  phonon       - calculate phonons for final geometry                         *
*  scatter      - calculate inelastic neutron scattering for final geometry    *
********************************************************************************

<<<<<<< HEAD
  Job Started  at 16:46.07 19th June       2020                               
=======
  Job Started  at 18:10.09 18th June       2020                               
>>>>>>> 4ee3e8ac7e3f4d4e86c52737f945af3adff2f7ec

  Number of CPUs =     1


  Total number of configurations input =   1

********************************************************************************
*  Input for Configuration =   1                                               *
********************************************************************************

  Formula = Si3O6                                                       

  Number of irreducible atoms/shells =       3


  Total number atoms/shells =      15

  Dimensionality = 3               :  Bulk   


  Symmetry :

  Crystal family                   :  Hexagonal   
  Crystal class  (Groth - 1921)    :  Trigonal Trapezohedral               

  Space group (noncentrosymmetric) :  P 31 2 1        

  Patterson group                  :  P -3 m 1 

  Cartesian lattice vectors (Angstroms) :

        4.914730    0.000000    0.000000
       -2.457365    4.256281    0.000000
        0.000000    0.000000    5.406570

  Cell parameters (Angstroms/Degrees):

  a =       4.9147    alpha =  90.0000
  b =       4.9147    beta  =  90.0000
  c =       5.4066    gamma = 120.0000

  Initial cell volume =         113.097184 Angs**3

  Shrinking factors =      5     5     5

  Temperature of configuration =  0.000     K 

  Pressure of configuration =         0.000 GPa 

  Fractional coordinates of asymmetric unit :

--------------------------------------------------------------------------------
   No.  Atomic       x           y          z         Charge      Occupancy
        Label      (Frac)      (Frac)     (Frac)        (e)         (Frac)  
--------------------------------------------------------------------------------
      1 Si    c    0.468200 *  0.000000    0.333333     4.00000    1.000000    
      2 O     c    0.413100 *  0.266100 *  0.213100 *   0.86902    1.000000    
      3 O     s    0.431813 *  0.264902 *  0.204106 *  -2.86902    1.000000    
--------------------------------------------------------------------------------


  Constraints : 

--------------------------------------------------------------------------------
  Constraint no.      Unconstrained     Constrained    Coefficient    Offset
                         Variable         Variable
--------------------------------------------------------------------------------
           1              Strain 1        Strain 2       1.00000      0.0000
--------------------------------------------------------------------------------

  Brillouin zone sampling points :

--------------------------------------------------------------------------------
  Point number          x          y          z            Weight
--------------------------------------------------------------------------------
        1           0.100000   0.100000   0.100000         0.0320
        2           0.100000   0.100000   0.300000         0.0320
        3           0.100000   0.100000   0.500000         0.0160
        4           0.300000   0.100000   0.100000         0.0320
        5           0.300000   0.100000   0.300000         0.0320
        6           0.300000   0.100000   0.500000         0.0320
        7           0.300000   0.100000   0.700000         0.0320
        8           0.300000   0.100000   0.900000         0.0320
        9           0.300000   0.300000   0.100000         0.0320
       10           0.300000   0.300000   0.300000         0.0320
       11           0.300000   0.300000   0.500000         0.0160
       12           0.500000   0.100000   0.100000         0.0320
       13           0.500000   0.100000   0.300000         0.0320
       14           0.500000   0.100000   0.500000         0.0320
       15           0.500000   0.100000   0.700000         0.0320
       16           0.500000   0.100000   0.900000         0.0320
       17           0.500000   0.300000   0.100000         0.0320
       18           0.500000   0.300000   0.300000         0.0320
       19           0.500000   0.300000   0.500000         0.0320
       20           0.500000   0.300000   0.700000         0.0320
       21           0.500000   0.300000   0.900000         0.0320
       22           0.500000   0.500000   0.100000         0.0160
       23           0.500000   0.500000   0.300000         0.0160
       24           0.500000   0.500000   0.500000         0.0080
       25           0.700000   0.100000   0.100000         0.0320
       26           0.700000   0.100000   0.300000         0.0320
       27           0.700000   0.100000   0.500000         0.0320
       28           0.700000   0.100000   0.700000         0.0320
       29           0.700000   0.100000   0.900000         0.0320
       30           0.700000   0.300000   0.100000         0.0160
       31           0.700000   0.300000   0.300000         0.0160
       32           0.700000   0.300000   0.500000         0.0160
       33           0.700000   0.300000   0.700000         0.0160
       34           0.700000   0.300000   0.900000         0.0160
       35           0.900000   0.100000   0.100000         0.0160
       36           0.900000   0.100000   0.300000         0.0160
       37           0.900000   0.100000   0.500000         0.0160
       38           0.900000   0.100000   0.700000         0.0160
       39           0.900000   0.100000   0.900000         0.0160
--------------------------------------------------------------------------------


********************************************************************************
*  General input information                                                   *
********************************************************************************

  Species output for all configurations : 

--------------------------------------------------------------------------------
  Species    Type    Atomic    Atomic    Charge       Radii (Angs)     Library
                     Number     Mass       (e)     Cova   Ionic  VDW   Symbol
--------------------------------------------------------------------------------
    Si       Core       14      28.09   4.000000   1.200  0.000  2.100          
    O        Core        8      16.00   0.869020   0.730  0.000  1.360          
    O        Shell       8       0.00  -2.869020   0.730  0.000  1.360          
--------------------------------------------------------------------------------


  Lattice summation method               =    Ewald          (3-D)
                                         =    Parry          (2-D)
                                         =    Saunders et al (1-D)
  Accuracy factor for lattice sums       =   12.000


  Time limit = Infinity

  Maximum range for interatomic potentials =    100000.000000 Angstroms

  General interatomic potentials :

--------------------------------------------------------------------------------
Atom  Types   Potential         A         B         C         D     Cutoffs(Ang)
  1     2                                                            Min    Max 
--------------------------------------------------------------------------------
Si   c O    s Buckingham    0.128E+04 0.321      10.7      0.00     0.000 12.000
O    s O    s Buckingham    0.228E+05 0.149      27.9      0.00     0.000 12.000
O    c O    s Spring (c-s)   74.9      0.00      0.00      0.00     0.000  0.800
--------------------------------------------------------------------------------

  General Three-body potentials :

  Harmonic form:

--------------------------------------------------------------------------------
Atom    Atom    Atom           Force Constants            Theta     Cutoffs  
  1       2       3     (eVrad**-2/eVrad**-3/eVrad**-4)   (deg)  1-2  1-3  2-3
--------------------------------------------------------------------------------
Si    c O     s O     s  2.097        0.0000    0.0000   109.470 0.00 0.00 0.00
                                                                 1.80 1.80 3.50
--------------------------------------------------------------------------------

********************************************************************************
*  Output for configuration   1                                                *
********************************************************************************


  Components of energy : 

--------------------------------------------------------------------------------
  Interatomic potentials     =         104.20124050 eV
  Three-body potentials      =           0.05967375 eV
  Monopole - monopole (real) =        -111.26563177 eV
  Monopole - monopole (recip)=        -379.17637423 eV
  Monopole - monopole (total)=        -490.44200600 eV
--------------------------------------------------------------------------------
  Total lattice energy       =        -386.18109175 eV
--------------------------------------------------------------------------------
  Total lattice energy       =          -37260.5720 kJ/(mole unit cells)
--------------------------------------------------------------------------------


  Number of variables =        9

  Maximum number of calculations  =          1000
  Maximum Hessian update interval =            10
  Maximum step size               =   1.000000000
  Maximum parameter tolerance     =   0.000010000
  Maximum function  tolerance     =   0.000010000
  Maximum gradient  tolerance     =   0.001000000
  Maximum gradient  component     =   0.010000000

  Symmetry constrained optimisation

  Symmetry used for second derivatives

  Cell parameters to be optimised using strains

  Newton-Raphson optimiser to be used

  BFGS hessian update to be used

  Dumpfile to be written after every cycle

  Start of bulk optimisation :

<<<<<<< HEAD
  Cycle:      0 Energy:      -386.181092  Gnorm:      0.750280  CPU:    0.012
  ** Hessian calculated **
  Cycle:      1 Energy:      -386.222886  Gnorm:      0.313181  CPU:    0.020
  Cycle:      2 Energy:      -386.224259  Gnorm:      0.115989  CPU:    0.024
  Cycle:      3 Energy:      -386.224931  Gnorm:      0.030540  CPU:    0.028
  Cycle:      4 Energy:      -386.224950  Gnorm:      0.002409  CPU:    0.032
=======
  Cycle:      0 Energy:      -386.181092  Gnorm:      0.750280  CPU:    0.008
  ** Hessian calculated **
  Cycle:      1 Energy:      -386.222886  Gnorm:      0.313181  CPU:    0.016
  Cycle:      2 Energy:      -386.224259  Gnorm:      0.115989  CPU:    0.020
  Cycle:      3 Energy:      -386.224931  Gnorm:      0.030540  CPU:    0.024
  Cycle:      4 Energy:      -386.224950  Gnorm:      0.002409  CPU:    0.028
>>>>>>> 4ee3e8ac7e3f4d4e86c52737f945af3adff2f7ec


  **** Optimisation achieved ****


  Final energy =    -386.22495657 eV
  Final Gnorm  =       0.00053893

  Components of energy : 

--------------------------------------------------------------------------------
  Interatomic potentials     =         106.76170366 eV
  Three-body potentials      =           0.04851715 eV
  Monopole - monopole (real) =        -108.17585088 eV
  Monopole - monopole (recip)=        -384.85932650 eV
  Monopole - monopole (total)=        -493.03517739 eV
--------------------------------------------------------------------------------
  Total lattice energy       =        -386.22495657 eV
--------------------------------------------------------------------------------
  Total lattice energy       =          -37264.8043 kJ/(mole unit cells)
--------------------------------------------------------------------------------

  Final asymmetric unit coordinates :

--------------------------------------------------------------------------------
   No.  Atomic        x           y           z         Radius
        Label       (Frac)      (Frac)      (Frac)       (Angs) 
--------------------------------------------------------------------------------
     1  Si    c     0.463669    0.000000    0.333333    0.000000
     2  O     c     0.408171    0.278693    0.224865    0.000000
     3  O     s     0.428090    0.276072    0.212984    0.000000
--------------------------------------------------------------------------------

  Final Cartesian lattice vectors (Angstroms) :

        4.832773    0.000000    0.000000
       -2.416386    4.185304    0.000000
        0.000000    0.000000    5.343315


  Final cell parameters and derivatives :

--------------------------------------------------------------------------------
       a            4.832773 Angstrom     dE/de1(xx)    -0.000594 eV/strain
       b            4.832773 Angstrom     dE/de2(yy)     0.000000 eV/strain
       c            5.343315 Angstrom     dE/de3(zz)    -0.000086 eV/strain
       alpha       90.000000 Degrees      dE/de4(yz)     0.000000 eV/strain
       beta        90.000000 Degrees      dE/de5(xz)     0.000000 eV/strain
       gamma      120.000000 Degrees      dE/de6(xy)     0.000000 eV/strain
--------------------------------------------------------------------------------

  Primitive cell volume =           108.077223 Angs**3

  Density of cell =      2.769780 g/cm**3

  Non-primitive cell volume =           108.077223 Angs**3


  Final internal derivatives :

--------------------------------------------------------------------------------
   No.  Atomic          a             b             c           Radius
        Label          (eV)          (eV)          (eV)        (eV/Angs)
--------------------------------------------------------------------------------
      1 Si    c      -0.001267      0.000000      0.000000      0.000000
      2 O     c       0.001101     -0.003202      0.002618      0.000000
      3 O     s       0.000180      0.001363     -0.001161      0.000000
--------------------------------------------------------------------------------
  Maximum abs         0.001267      0.003202      0.002618      0.000000
--------------------------------------------------------------------------------


  Born effective charge tensors : 

-------------------------------------------------------------------------------
  Atom             x           y             z
-------------------------------------------------------------------------------
   1 Si    x       3.1475      0.0000      0.0000
           y       0.0000      3.5551      0.3361
           z       0.0000     -0.1951      3.4514
-------------------------------------------------------------------------------
   2 O     x      -1.4064      0.3783     -0.2517
           y       0.3741     -1.9449      0.5311
           z      -0.1659      0.5898     -1.7257
-------------------------------------------------------------------------------




  Elastic Constant Matrix: (Units=GPa)

-------------------------------------------------------------------------------
  Indices      1         2         3         4         5         6    
-------------------------------------------------------------------------------
       1     94.7112   18.5517   19.7658  -14.4598    0.0002    0.0000
       2     18.5517   94.7112   19.7658   14.4598   -0.0002   -0.0000
       3     19.7658   19.7658  116.2855   -0.0000    0.0000   -0.0000
       4    -14.4598   14.4598   -0.0000   50.0491    0.0000   -0.0002
       5      0.0002   -0.0002    0.0000    0.0000   50.0491  -14.4598
       6      0.0000   -0.0000   -0.0000   -0.0002  -14.4598   38.0797
-------------------------------------------------------------------------------


  Elastic Compliance Matrix: (Units=1/GPa)

-------------------------------------------------------------------------------
  Indices      1         2         3         4         5         6    
-------------------------------------------------------------------------------
       1    0.012067 -0.002681 -0.001595  0.004261 -0.000000 -0.000000
       2   -0.002681  0.012067 -0.001595 -0.004261  0.000000  0.000000
       3   -0.001595 -0.001595  0.009142 -0.000000  0.000000  0.000000
       4    0.004261 -0.004261 -0.000000  0.022442 -0.000000  0.000000
       5   -0.000000  0.000000  0.000000 -0.000000  0.022442  0.008522
       6   -0.000000  0.000000  0.000000  0.000000  0.008522  0.029497
-------------------------------------------------------------------------------

  Mechanical properties :

-------------------------------------------------------------------------------
  Convention :                    Reuss         Voigt         Hill
-------------------------------------------------------------------------------
  Bulk  Modulus (GPa)     =      46.44237      46.87496      46.65866
  Shear Modulus (GPa)     =      39.50100      44.14389      41.82245
-------------------------------------------------------------------------------
  Velocity S-wave (km/s)  =       3.77643       3.99220       3.88581
  Velocity P-wave (km/s)  =       5.98187       6.17851       6.08098
-------------------------------------------------------------------------------
  Compressibility (1/GPa) =    0.02153206
-------------------------------------------------------------------------------
  Stress axis :                     x             y             z
-------------------------------------------------------------------------------
  Youngs Moduli (GPa)     =      82.87002      82.87002     109.38675
-------------------------------------------------------------------------------
  Poissons Ratio (x)      =                     0.22220       0.17451
  Poissons Ratio (y)      =       0.22220                     0.17451
  Poissons Ratio (z)      =       0.13221       0.13221
-------------------------------------------------------------------------------


  Piezoelectric Strain Matrix: (Units=C/m**2)

-------------------------------------------------------------------------------
  Indices      1         2         3         4         5         6    
-------------------------------------------------------------------------------
       x     2.69182  -2.69182  -0.00000  -1.41366   0.00007   0.00001
       y     0.00001  -0.00001  -0.00000   0.00007   1.41366  -2.69182
       z    -0.00004  -0.00004   0.00010   0.00000   0.00000  -0.00000
-------------------------------------------------------------------------------


  Piezoelectric Stress Matrix: (Units=10**-11 C/N)

-------------------------------------------------------------------------------
  Indices      1         2         3         4         5         6    
-------------------------------------------------------------------------------
       x     3.36763  -3.36763  -0.00000  -0.87865   0.00013   0.00006
       y     0.00003  -0.00003  -0.00000   0.00013   0.87865  -6.73526
       z    -0.00005  -0.00005   0.00011   0.00000   0.00000  -0.00000
-------------------------------------------------------------------------------


  Static dielectric constant tensor : 

-------------------------------------------------------------------------------
              x         y         z
-------------------------------------------------------------------------------
       x     4.75221  -0.00000  -0.00000
       y    -0.00000   4.75221   0.00000
       z    -0.00000   0.00000   5.02516
--------------------------------------------------------------------------------

  High frequency dielectric constant tensor : 

-------------------------------------------------------------------------------
              x         y         z
-------------------------------------------------------------------------------
       x     2.11948  -0.00000   0.00000
       y    -0.00000   2.11948  -0.00000
       z     0.00000  -0.00000   2.14288
-------------------------------------------------------------------------------

  Static refractive indices : 

-------------------------------------------------------------------------------
    1 =    2.17996      2 =    2.17996      3 =    2.24169
-------------------------------------------------------------------------------

  High frequency refractive indices : 

-------------------------------------------------------------------------------
    1 =    1.45584      2 =    1.45584      3 =    1.46386
-------------------------------------------------------------------------------


  Phonon Calculation : 

  Number of k points for this configuration =       39

--------------------------------------------------------------------------------
  K point      1 =   0.100000  0.100000  0.100000  Weight =    0.032
--------------------------------------------------------------------------------

  Frequencies (cm-1) [NB: Negative implies an imaginary mode]:

   48.92   60.80   93.56  147.11  162.18  230.75  262.27  281.72  312.54
  342.95  395.68  412.92  432.90  452.22  485.91  539.19  676.16  739.95
  808.18  838.21  856.28  888.09  889.53  901.50 1004.04 1025.41 1100.76


--------------------------------------------------------------------------------
  K point      2 =   0.100000  0.100000  0.300000  Weight =    0.032
--------------------------------------------------------------------------------

  Frequencies (cm-1) [NB: Negative implies an imaginary mode]:

   79.94   97.88  125.85  158.79  171.16  217.54  245.81  267.94  291.74
  377.56  391.03  421.31  429.61  449.63  464.42  562.61  627.86  781.99
  817.59  826.63  853.59  887.76  890.99  895.01  988.83 1048.69 1091.69


--------------------------------------------------------------------------------
  K point      3 =   0.100000  0.100000  0.500000  Weight =    0.016
--------------------------------------------------------------------------------

  Frequencies (cm-1) [NB: Negative implies an imaginary mode]:

   93.69  129.39  135.56  172.84  183.83  204.41  216.09  272.42  276.65
  386.51  398.39  423.04  433.72  450.17  456.30  571.73  602.60  797.54
  821.05  829.24  844.98  887.04  891.24  894.68  980.62 1066.16 1079.90


--------------------------------------------------------------------------------
  K point      4 =   0.300000  0.100000  0.100000  Weight =    0.032
--------------------------------------------------------------------------------

  Frequencies (cm-1) [NB: Negative implies an imaginary mode]:

   82.10  104.35  139.68  154.14  203.42  233.99  253.55  290.84  302.45
  328.41  395.60  400.77  419.76  441.87  486.41  535.99  649.90  745.21
  817.00  850.94  866.92  888.15  894.61  900.97 1013.00 1031.05 1079.23


--------------------------------------------------------------------------------
  K point      5 =   0.300000  0.100000  0.300000  Weight =    0.032
--------------------------------------------------------------------------------

  Frequencies (cm-1) [NB: Negative implies an imaginary mode]:

   84.14  108.52  140.36  165.05  219.96  228.54  246.01  279.02  306.64
  339.10  385.27  401.91  418.70  446.69  466.76  540.76  627.77  754.95
  821.45  860.45  867.76  887.76  894.53  899.41 1019.62 1026.62 1065.58


--------------------------------------------------------------------------------
  K point      6 =   0.300000  0.100000  0.500000  Weight =    0.032
--------------------------------------------------------------------------------

  Frequencies (cm-1) [NB: Negative implies an imaginary mode]:

   87.43  106.27  134.01  180.96  195.18  236.99  256.10  282.75  303.75
  351.80  377.07  401.30  422.45  441.58  460.96  540.33  616.04  751.25
  838.83  847.19  878.47  888.53  893.42  904.59 1010.46 1027.99 1062.11


--------------------------------------------------------------------------------
  K point      7 =   0.300000  0.100000  0.700000  Weight =    0.032
--------------------------------------------------------------------------------

  Frequencies (cm-1) [NB: Negative implies an imaginary mode]:

   76.36  111.86  135.54  155.09  202.28  241.19  252.84  293.24  304.21
  348.42  374.73  404.48  422.42  441.08  468.19  540.76  628.78  744.07
  830.55  848.23  879.40  888.67  892.91  907.55 1008.58 1022.13 1074.56


--------------------------------------------------------------------------------
  K point      8 =   0.300000  0.100000  0.900000  Weight =    0.032
--------------------------------------------------------------------------------

  Frequencies (cm-1) [NB: Negative implies an imaginary mode]:

   89.74  100.74  143.77  156.32  172.76  242.36  264.46  292.52  310.04
  321.00  390.23  410.65  419.43  438.92  488.07  533.57  654.55  732.30
  827.71  845.43  870.73  888.36  893.34  905.55 1007.12 1029.00 1083.61


--------------------------------------------------------------------------------
  K point      9 =   0.300000  0.300000  0.100000  Weight =    0.032
--------------------------------------------------------------------------------

  Frequencies (cm-1) [NB: Negative implies an imaginary mode]:

  114.39  120.61  150.61  191.67  203.34  225.06  255.47  277.28  286.28
  361.48  378.88  386.61  392.59  455.70  472.74  573.55  613.30  764.90
  827.94  845.22  862.61  891.03  895.83  898.47 1029.44 1041.50 1056.23


--------------------------------------------------------------------------------
  K point     10 =   0.300000  0.300000  0.300000  Weight =    0.032
--------------------------------------------------------------------------------

  Frequencies (cm-1) [NB: Negative implies an imaginary mode]:

   85.24  110.85  141.31  178.71  211.25  236.24  272.23  290.33  303.27
  344.85  366.93  391.36  407.95  440.82  468.18  551.40  627.39  716.08
  841.82  870.13  879.98  893.15  895.40  907.13 1006.99 1034.49 1053.45


--------------------------------------------------------------------------------
  K point     11 =   0.300000  0.300000  0.500000  Weight =    0.016
--------------------------------------------------------------------------------

  Frequencies (cm-1) [NB: Negative implies an imaginary mode]:

   80.01  107.19  107.73  194.77  195.80  254.41  292.67  296.07  316.09
  323.41  364.76  383.63  420.71  429.05  465.63  542.70  643.12  679.87
  866.77  876.68  878.08  891.57  894.35  918.08  991.26 1038.59 1043.46


--------------------------------------------------------------------------------
  K point     12 =   0.500000  0.100000  0.100000  Weight =    0.032
--------------------------------------------------------------------------------

  Frequencies (cm-1) [NB: Negative implies an imaginary mode]:

   93.02  120.47  143.94  158.82  186.22  243.99  274.56  285.18  300.13
  338.70  371.80  404.45  418.22  441.06  485.18  531.83  649.26  736.23
  836.91  845.05  867.78  888.47  895.84  903.33 1008.69 1039.05 1072.30


--------------------------------------------------------------------------------
  K point     13 =   0.500000  0.100000  0.300000  Weight =    0.032
--------------------------------------------------------------------------------

  Frequencies (cm-1) [NB: Negative implies an imaginary mode]:

   87.59  106.09  136.43  150.96  209.96  249.21  264.55  298.22  322.74
  330.74  363.02  395.15  418.49  443.05  469.22  533.27  631.17  735.87
  829.83  860.35  881.14  888.47  895.47  910.83 1002.16 1033.98 1061.87


--------------------------------------------------------------------------------
  K point     14 =   0.500000  0.100000  0.500000  Weight =    0.032
--------------------------------------------------------------------------------

  Frequencies (cm-1) [NB: Negative implies an imaginary mode]:

   81.45   99.73  124.82  180.68  197.34  247.73  282.64  287.19  320.69
  339.22  362.45  389.67  415.01  444.95  462.65  531.90  619.70  736.31
  845.74  848.82  885.11  888.34  896.33  917.21 1001.50 1034.30 1050.26


--------------------------------------------------------------------------------
  K point     15 =   0.500000  0.100000  0.700000  Weight =    0.032
--------------------------------------------------------------------------------

  Frequencies (cm-1) [NB: Negative implies an imaginary mode]:

   87.95  108.41  139.69  152.36  216.06  246.46  262.15  297.60  316.25
  321.08  377.01  392.94  415.54  445.20  468.39  533.36  630.48  740.87
  826.00  866.12  877.00  888.21  897.02  903.94 1006.80 1041.96 1052.98


--------------------------------------------------------------------------------
  K point     16 =   0.500000  0.100000  0.900000  Weight =    0.032
--------------------------------------------------------------------------------

  Frequencies (cm-1) [NB: Negative implies an imaginary mode]:

   90.33  119.50  141.71  159.02  203.30  241.07  260.28  286.90  304.64
  334.84  377.50  399.07  419.38  442.05  484.20  532.96  647.16  742.30
  828.04  852.55  865.07  888.45  897.21  900.17 1011.16 1041.29 1069.23


--------------------------------------------------------------------------------
  K point     17 =   0.500000  0.300000  0.100000  Weight =    0.032
--------------------------------------------------------------------------------

  Frequencies (cm-1) [NB: Negative implies an imaginary mode]:

  101.77  116.83  148.74  165.92  205.01  233.27  248.04  286.48  301.87
  338.71  387.93  392.63  405.92  446.09  481.42  554.93  630.56  756.61
  821.33  848.47  866.94  889.40  895.68  900.43 1017.79 1038.26 1068.37


--------------------------------------------------------------------------------
  K point     18 =   0.500000  0.300000  0.300000  Weight =    0.032
--------------------------------------------------------------------------------

  Frequencies (cm-1) [NB: Negative implies an imaginary mode]:

   83.74  110.89  142.48  169.93  213.30  232.29  259.39  291.59  315.05
  331.21  374.70  397.93  412.20  441.76  467.79  546.79  625.84  732.95
  831.95  866.56  877.87  889.69  895.16  904.68 1010.18 1032.46 1058.63


--------------------------------------------------------------------------------
  K point     19 =   0.500000  0.300000  0.500000  Weight =    0.032
--------------------------------------------------------------------------------

  Frequencies (cm-1) [NB: Negative implies an imaginary mode]:

   81.39  108.98  118.90  188.47  195.41  244.06  276.58  289.35  318.85
  338.85  360.27  397.08  417.56  436.19  462.69  541.96  624.20  715.58
  852.36  867.01  880.26  889.66  894.19  911.80 1000.41 1033.06 1051.92


--------------------------------------------------------------------------------
  K point     20 =   0.500000  0.300000  0.700000  Weight =    0.032
--------------------------------------------------------------------------------

  Frequencies (cm-1) [NB: Negative implies an imaginary mode]:

   83.90  108.87  142.14  167.67  206.91  236.01  262.78  292.77  317.08
  335.59  369.43  397.05  414.40  440.17  468.69  546.71  626.32  729.93
  835.38  860.84  880.98  889.90  893.94  909.64 1006.87 1029.46 1062.54


--------------------------------------------------------------------------------
  K point     21 =   0.500000  0.300000  0.900000  Weight =    0.032
--------------------------------------------------------------------------------

  Frequencies (cm-1) [NB: Negative implies an imaginary mode]:

  104.44  117.91  147.10  172.77  184.46  237.92  259.29  283.23  300.62
  340.60  383.81  397.88  404.18  445.53  482.14  554.22  631.72  752.04
  829.06  842.69  868.51  889.39  894.95  902.35 1016.24 1036.79 1070.42


--------------------------------------------------------------------------------
  K point     22 =   0.500000  0.500000  0.100000  Weight =    0.016
--------------------------------------------------------------------------------

  Frequencies (cm-1) [NB: Negative implies an imaginary mode]:

   81.83  123.13  139.77  155.15  193.94  245.05  272.73  287.15  308.42
  333.77  367.58  404.63  429.18  439.92  484.95  519.09  658.26  729.57
  834.33  852.73  865.53  888.02  896.84  902.24 1006.05 1041.27 1071.59


--------------------------------------------------------------------------------
  K point     23 =   0.500000  0.500000  0.300000  Weight =    0.016
--------------------------------------------------------------------------------

  Frequencies (cm-1) [NB: Negative implies an imaginary mode]:

   93.04  103.07  132.11  147.10  212.63  254.45  266.19  301.64  319.71
  322.94  367.25  393.56  418.08  448.53  467.89  525.16  633.34  742.32
  826.19  859.54  880.22  887.73  896.30  908.72 1002.17 1041.56 1055.95


--------------------------------------------------------------------------------
  K point     24 =   0.500000  0.500000  0.500000  Weight =    0.008
--------------------------------------------------------------------------------

  Frequencies (cm-1) [NB: Negative implies an imaginary mode]:

   81.00   95.78  126.75  177.97  197.62  249.09  285.77  285.93  319.70
  350.45  354.59  386.30  413.95  450.43  462.21  525.10  618.10  750.03
  837.31  842.46  886.13  887.85  896.45  921.19 1001.14 1036.88 1048.14


--------------------------------------------------------------------------------
  K point     25 =   0.700000  0.100000  0.100000  Weight =    0.032
--------------------------------------------------------------------------------

  Frequencies (cm-1) [NB: Negative implies an imaginary mode]:

   71.81   79.76  125.87  149.72  169.59  237.14  255.59  292.86  307.91
  330.55  396.67  417.45  424.16  441.50  489.74  535.89  663.80  734.29
  814.04  845.70  866.92  888.15  890.90  904.36 1006.77 1022.83 1093.79


--------------------------------------------------------------------------------
  K point     26 =   0.700000  0.100000  0.300000  Weight =    0.032
--------------------------------------------------------------------------------

  Frequencies (cm-1) [NB: Negative implies an imaginary mode]:

   73.14  113.30  131.06  159.50  188.64  226.27  246.21  278.97  293.78
  364.48  385.43  416.50  426.81  441.94  466.36  552.30  626.21  762.70
  825.72  835.56  868.97  888.76  891.33  899.65 1001.47 1032.24 1084.37


--------------------------------------------------------------------------------
  K point     27 =   0.700000  0.100000  0.500000  Weight =    0.032
--------------------------------------------------------------------------------

  Frequencies (cm-1) [NB: Negative implies an imaginary mode]:

   94.66  119.27  141.23  178.33  186.68  221.51  230.46  277.40  284.59
  373.99  385.10  413.50  434.88  439.41  458.34  554.91  609.57  775.41
  829.67  841.17  859.27  888.21  891.22  897.79  997.63 1046.31 1072.44


--------------------------------------------------------------------------------
  K point     28 =   0.700000  0.100000  0.700000  Weight =    0.032
--------------------------------------------------------------------------------

  Frequencies (cm-1) [NB: Negative implies an imaginary mode]:

   82.03  106.46  136.28  170.87  193.53  218.54  239.89  271.75  298.75
  359.52  387.27  411.82  426.28  447.43  466.28  552.05  626.00  770.71
  818.89  842.10  860.41  887.62  891.92  897.77 1006.18 1036.26 1079.38


--------------------------------------------------------------------------------
  K point     29 =   0.700000  0.100000  0.900000  Weight =    0.032
--------------------------------------------------------------------------------

  Frequencies (cm-1) [NB: Negative implies an imaginary mode]:

   68.23   84.84  123.97  147.17  183.36  230.61  257.11  287.22  306.00
  334.40  396.08  415.81  420.66  444.38  489.19  537.62  660.27  743.51
  808.77  846.38  864.77  887.74  891.47  902.14 1009.94 1024.90 1090.94


--------------------------------------------------------------------------------
  K point     30 =   0.700000  0.300000  0.100000  Weight =    0.016
--------------------------------------------------------------------------------

  Frequencies (cm-1) [NB: Negative implies an imaginary mode]:

   70.06   89.72  130.41  149.37  197.91  229.87  263.72  279.25  303.44
  332.30  397.55  411.33  419.65  447.33  487.24  530.03  661.69  739.56
  814.67  848.27  864.56  887.75  892.87  901.04 1013.42 1025.02 1086.41


--------------------------------------------------------------------------------
  K point     31 =   0.700000  0.300000  0.300000  Weight =    0.016
--------------------------------------------------------------------------------

  Frequencies (cm-1) [NB: Negative implies an imaginary mode]:

   85.07  104.39  138.35  169.05  219.24  220.24  234.74  267.34  303.40
  349.05  389.09  406.26  423.54  450.74  466.57  542.22  629.17  769.22
  818.13  852.30  856.42  887.23  893.34  897.17 1015.95 1031.64 1072.40


--------------------------------------------------------------------------------
  K point     32 =   0.700000  0.300000  0.500000  Weight =    0.016
--------------------------------------------------------------------------------

  Frequencies (cm-1) [NB: Negative implies an imaginary mode]:

   98.28  100.43  145.59  178.35  192.20  226.56  241.72  275.50  292.57
  362.86  389.21  403.88  430.12  441.42  461.72  544.29  613.20  774.09
  831.31  833.62  871.34  888.11  892.55  899.19 1005.56 1036.49 1069.57


--------------------------------------------------------------------------------
  K point     33 =   0.700000  0.300000  0.700000  Weight =    0.016
--------------------------------------------------------------------------------

  Frequencies (cm-1) [NB: Negative implies an imaginary mode]:

   67.91  119.21  125.16  153.40  195.68  235.54  251.57  287.37  292.69
  359.81  382.17  412.20  426.33  442.84  466.43  542.61  630.02  753.48
  828.78  839.41  874.89  888.94  892.03  902.82 1004.76 1024.43 1082.92


--------------------------------------------------------------------------------
  K point     34 =   0.700000  0.300000  0.900000  Weight =    0.016
--------------------------------------------------------------------------------

  Frequencies (cm-1) [NB: Negative implies an imaginary mode]:

   75.00   83.88  136.38  152.49  165.98  242.36  262.07  293.44  310.64
  320.95  396.24  416.93  424.25  443.47  488.33  526.52  670.28  720.99
  823.77  846.24  869.24  888.31  891.57  906.06 1005.16 1022.84 1091.90


--------------------------------------------------------------------------------
  K point     35 =   0.900000  0.100000  0.100000  Weight =    0.016
--------------------------------------------------------------------------------

  Frequencies (cm-1) [NB: Negative implies an imaginary mode]:

   38.63   44.11   61.54  145.29  155.14  230.57  264.70  278.00  317.05
  352.06  393.95  409.01  436.15  460.89  474.48  547.20  685.09  744.26
  812.43  826.22  848.25  887.98  888.95  898.04 1001.43 1030.08 1105.27


--------------------------------------------------------------------------------
  K point     36 =   0.900000  0.100000  0.300000  Weight =    0.016
--------------------------------------------------------------------------------

  Frequencies (cm-1) [NB: Negative implies an imaginary mode]:

   68.46   95.09  116.68  153.34  162.13  220.37  240.77  270.43  287.81
  387.37  397.08  423.30  428.78  454.76  462.08  568.88  631.97  789.17
  809.30  827.97  844.66  886.47  890.82  893.33  979.55 1057.51 1097.82


--------------------------------------------------------------------------------
  K point     37 =   0.900000  0.100000  0.500000  Weight =    0.016
--------------------------------------------------------------------------------

  Frequencies (cm-1) [NB: Negative implies an imaginary mode]:

   74.20  130.74  140.06  170.00  184.44  190.35  212.18  270.99  273.38
  390.91  410.06  429.54  433.44  454.06  456.38  584.72  597.60  798.59
  815.75  830.44  840.25  885.88  891.93  893.28  968.00 1078.45 1083.67


--------------------------------------------------------------------------------
  K point     38 =   0.900000  0.100000  0.700000  Weight =    0.016
--------------------------------------------------------------------------------

  Frequencies (cm-1) [NB: Negative implies an imaginary mode]:

   67.94   91.25  117.36  154.75  160.20  221.48  241.88  271.04  286.72
  386.52  399.25  424.66  429.25  454.42  460.33  569.07  631.75  788.09
  808.65  826.73  848.35  887.14  891.51  892.23  978.64 1056.31 1099.08


--------------------------------------------------------------------------------
  K point     39 =   0.900000  0.100000  0.900000  Weight =    0.016
--------------------------------------------------------------------------------

  Frequencies (cm-1) [NB: Negative implies an imaginary mode]:

   28.66   41.67   67.73  146.53  152.80  231.51  262.67  279.41  317.67
  351.94  393.55  411.00  438.09  460.69  473.06  546.56  686.48  740.89
  814.48  828.51  846.24  888.72  888.93  898.22 1002.02 1027.17 1106.92


--------------------------------------------------------------------------------
  Phonon properties (per mole of unit cells): Temperature =      0.000 K
--------------------------------------------------------------------------------
  Zero point energy            =        0.898565 eV
--------------------------------------------------------------------------------

  Phonon density of states : 

--------------------------------------------------------------------------------
 Frequency (cm-1) Density of States                                             
--------------------------------------------------------------------------------
    0.00000 |                                                              0.000
   17.29555 |                                                              0.001
   34.59110 |**                                                            0.003
   51.88664 |***                                                           0.005
   69.18219 |**************                                                0.021
   86.47774 |*************                                                 0.019
  103.77329 |********************                                          0.028
  121.06884 |***********                                                   0.016
  138.36439 |**********************                                        0.032
  155.65993 |***************                                               0.021
  172.95548 |*********                                                     0.014
  190.25103 |************                                                  0.018
  207.54658 |*********                                                     0.014
  224.84213 |*****************                                             0.025
  242.13767 |*****************                                             0.025
  259.43322 |***************                                               0.021
  276.72877 |*************************                                     0.037
  294.02432 |***************                                               0.021
  311.31987 |***********                                                   0.016
  328.61542 |************                                                  0.018
  345.91096 |********                                                      0.012
  363.20651 |***********                                                   0.016
  380.50206 |***********************                                       0.033
  397.79761 |*******************                                           0.028
  415.09316 |**********************                                        0.032
  432.38870 |************************                                      0.034
  449.68425 |***************                                               0.021
  466.97980 |*********                                                     0.014
  484.27535 |******                                                        0.009
  501.57090 |                                                              0.000
  518.86645 |********                                                      0.012
  536.16199 |***********                                                   0.017
  553.45754 |****                                                          0.006
  570.75309 |*                                                             0.002
  588.04864 |                                                              0.001
  605.34419 |***                                                           0.006
  622.63973 |************                                                  0.018
  639.93528 |***                                                           0.005
  657.23083 |**                                                            0.004
  674.52638 |**                                                            0.003
  691.82193 |                                                              0.000
  709.11748 |**                                                            0.003
  726.41302 |**********                                                    0.015
  743.70857 |******                                                        0.009
  761.00412 |****                                                          0.006
  778.29967 |*                                                             0.002
  795.59522 |***                                                           0.005
  812.89076 |*****************                                             0.025
  830.18631 |*******************                                           0.028
  847.48186 |***************                                               0.023
  864.77741 |********************                                          0.030
  882.07296 |************************************************************  0.085
  899.36851 |*****************                                             0.025
  916.66405 |*                                                             0.002
  933.95960 |                                                              0.000
  951.25515 |                                                              0.001
  968.55070 |*                                                             0.002
  985.84625 |******                                                        0.010
 1003.14179 |****************                                              0.024
 1020.43734 |******************                                            0.026
 1037.73289 |***********                                                   0.016
 1055.02844 |**********                                                    0.015
 1072.32399 |*******                                                       0.011
 1089.61954 |*****                                                         0.008
--------------------------------------------------------------------------------


<<<<<<< HEAD
 kt init_par   0.0000000000000000        0.0000000000000000        0.0000000000000000        0.0000000000000000     

  Time to end of optimisation =       1.8560 seconds
=======

  Time to end of optimisation =       1.7920 seconds
>>>>>>> 4ee3e8ac7e3f4d4e86c52737f945af3adff2f7ec


  Peak dynamic memory used =       0.64 MB 


  Timing analysis for GULP :

--------------------------------------------------------------------------------
  Task / Subroutine                                          Time (Seconds)
--------------------------------------------------------------------------------
<<<<<<< HEAD
  Calculation of reciprocal space energy and derivatives          0.8320
  Calculation of reciprocal space energy using symmetry           0.0040
  Calculation of real space energy and derivatives                0.8560
  Calculation of real space energy using symmetry                 0.0200
  Calculation of three-body energy and derivatives                0.0320
  Calculation of phonons                                          1.6080
  Calculation of scattering                                       0.0120
--------------------------------------------------------------------------------
  Total CPU time                                                  1.8560
=======
  Calculation of reciprocal space energy and derivatives          0.8000
  Calculation of reciprocal space energy using symmetry           0.0120
  Calculation of real space energy and derivatives                0.8320
  Calculation of real space energy using symmetry                 0.0160
  Calculation of three-body energy and derivatives                0.0280
  Calculation of phonons                                          1.5520
  Calculation of scattering                                       0.0160
  Calculation of matrix inversion                                 0.0040
  Symmetry generation of equivalent positions                     0.0040
--------------------------------------------------------------------------------
  Total CPU time                                                  1.7920
>>>>>>> 4ee3e8ac7e3f4d4e86c52737f945af3adff2f7ec
--------------------------------------------------------------------------------


  Dump file written as test_scatter.res                                        


<<<<<<< HEAD
  Job Finished at 16:46.09 19th June       2020                               
=======
  Job Finished at 18:10.10 18th June       2020                               
>>>>>>> 4ee3e8ac7e3f4d4e86c52737f945af3adff2f7ec

