  56  56   0   0
  0.8431073E+01  0.7786763E-09  0.7786763E-09  0.7786763E-09  0.5000000E-15
  1.000000000000000E-004
  CAR 
 POSCAR (VASP)                           
     19.41490742    -11.04555267  301      9.18526957      1.00000000
    -11.046  0.0000E+00  0.0000E+00
    -10.944  0.0000E+00  0.0000E+00
    -10.842  0.0000E+00  0.0000E+00
    -10.741  0.0000E+00  0.0000E+00
    -10.639  0.0000E+00  0.0000E+00
    -10.538  0.0000E+00  0.0000E+00
    -10.436  0.0000E+00  0.0000E+00
    -10.335  0.0000E+00  0.0000E+00
    -10.233  0.0000E+00  0.0000E+00
    -10.132  0.0000E+00  0.0000E+00
    -10.030  0.0000E+00  0.0000E+00
     -9.929  0.0000E+00  0.0000E+00
     -9.827  0.0000E+00  0.0000E+00
     -9.726  0.0000E+00  0.0000E+00
     -9.624  0.7295E+00  0.7407E-01
     -9.523  0.2430E-15  0.7407E-01
     -9.421  0.4377E+01  0.5185E+00
     -9.319  0.2962E-09  0.5185E+00
     -9.218  0.8755E+01  0.1407E+01
     -9.116  0.5301E-02  0.1408E+01
     -9.015  0.5831E+01  0.2000E+01
     -8.913  0.3384E-02  0.2000E+01
     -8.812  0.4374E+01  0.2444E+01
     -8.710  0.1742E+02  0.4213E+01
     -8.609  0.1719E+02  0.5968E+01
     -8.507  0.0000E+00  0.6000E+01
     -8.406  0.0000E+00  0.6000E+01
     -8.304  0.8502E+01  0.6863E+01
     -8.203  0.0000E+00  0.6889E+01
     -8.101  0.0000E+00  0.6889E+01
     -8.000  0.4347E+01  0.7330E+01
     -7.898  0.1751E+02  0.9111E+01
     -7.796  0.0000E+00  0.9111E+01
     -7.695  0.1743E+02  0.1088E+02
     -7.593  0.8752E+01  0.1178E+02
     -7.492  0.0000E+00  0.1178E+02
     -7.390  0.0000E+00  0.1178E+02
     -7.289  0.1781E+02  0.1359E+02
     -7.187  0.0000E+00  0.1415E+02
     -7.086  0.3371E+01  0.1449E+02
     -6.984  0.6168E+01  0.1522E+02
     -6.883  0.0000E+00  0.1548E+02
     -6.781  0.8755E+01  0.1637E+02
     -6.680  0.6602E-01  0.1638E+02
     -6.578  0.2188E+02  0.1993E+02
     -6.476  0.4377E+01  0.2037E+02
     -6.375  0.4218E+01  0.2080E+02
     -6.273  0.1021E-13  0.2222E+02
     -6.172  0.8755E+01  0.2311E+02
     -6.070  0.4381E+01  0.2356E+02
     -5.969  0.2203E+02  0.2579E+02
     -5.867  0.4377E+01  0.2681E+02
     -5.766  0.2189E+02  0.2904E+02
     -5.664  0.3137E+01  0.2936E+02
     -5.563  0.3263E+02  0.3368E+02
     -5.461  0.8675E+01  0.3570E+02
     -5.360  0.1739E+01  0.3610E+02
     -5.258  0.7019E+00  0.3718E+02
     -5.157  0.2626E+02  0.4156E+02
     -5.055  0.1751E+02  0.4333E+02
     -4.953  0.9438E+01  0.4429E+02
     -4.852  0.2437E+02  0.4803E+02
     -4.750  0.2898E+00  0.4914E+02
     -4.649  0.5251E+02  0.5622E+02
     -4.547  0.8755E+01  0.5711E+02
     -4.446  0.1970E+02  0.5911E+02
     -4.344  0.3500E+02  0.6266E+02
     -4.243  0.8755E+01  0.6356E+02
     -4.141  0.4377E+01  0.6400E+02
     -4.040  0.0000E+00  0.6400E+02
     -3.938  0.0000E+00  0.6400E+02
     -3.837  0.0000E+00  0.6400E+02
     -3.735  0.0000E+00  0.6400E+02
     -3.634  0.0000E+00  0.6400E+02
     -3.532  0.0000E+00  0.6400E+02
     -3.430  0.0000E+00  0.6400E+02
     -3.329  0.0000E+00  0.6400E+02
     -3.227  0.0000E+00  0.6400E+02
     -3.126  0.0000E+00  0.6400E+02
     -3.024  0.0000E+00  0.6400E+02
     -2.923  0.0000E+00  0.6400E+02
     -2.821  0.0000E+00  0.6400E+02
     -2.720  0.0000E+00  0.6400E+02
     -2.618  0.0000E+00  0.6400E+02
     -2.517  0.0000E+00  0.6400E+02
     -2.415  0.0000E+00  0.6400E+02
     -2.314  0.0000E+00  0.6400E+02
     -2.212  0.0000E+00  0.6400E+02
     -2.110  0.0000E+00  0.6400E+02
     -2.009  0.0000E+00  0.6400E+02
     -1.907  0.0000E+00  0.6400E+02
     -1.806  0.0000E+00  0.6400E+02
     -1.704  0.0000E+00  0.6400E+02
     -1.603  0.0000E+00  0.6400E+02
     -1.501  0.0000E+00  0.6400E+02
     -1.400  0.2382E-09  0.6400E+02
     -1.298  0.7295E+00  0.6407E+02
     -1.197  0.0000E+00  0.6407E+02
     -1.095  0.0000E+00  0.6407E+02
     -0.994  0.0000E+00  0.6407E+02
     -0.892  0.0000E+00  0.6407E+02
     -0.791  0.4375E+01  0.6452E+02
     -0.689  0.0000E+00  0.6452E+02
     -0.587  0.1557E-06  0.6452E+02
     -0.486  0.8755E+01  0.6541E+02
     -0.384  0.2430E-14  0.6541E+02
     -0.283  0.7299E+00  0.6548E+02
     -0.181  0.5836E+01  0.6607E+02
     -0.080  0.0000E+00  0.6607E+02
      0.022  0.4306E+01  0.6651E+02
      0.123  0.0000E+00  0.6652E+02
      0.225  0.3049E-01  0.6652E+02
      0.326  0.2117E-02  0.6674E+02
      0.428  0.2977E+02  0.6976E+02
      0.529  0.4377E+01  0.7163E+02
      0.631  0.1683E+02  0.7334E+02
      0.732  0.1897E+02  0.7533E+02
      0.834  0.6794E+01  0.7602E+02
      0.936  0.5843E-11  0.7756E+02
      1.037  0.2918E+02  0.8052E+02
      1.139  0.3683E+00  0.8056E+02
      1.240  0.0000E+00  0.8141E+02
      1.342  0.1745E+02  0.8318E+02
      1.443  0.1012E+02  0.8421E+02
      1.545  0.8006E-05  0.8585E+02
      1.646  0.3333E+02  0.8924E+02
      1.748  0.1751E+02  0.9296E+02
      1.849  0.0000E+00  0.9296E+02
      1.951  0.1021E+02  0.9400E+02
      2.052  0.2570E+02  0.9661E+02
      2.154  0.8756E+01  0.9844E+02
      2.256  0.5831E+01  0.9904E+02
      2.357  0.1044E-04  0.9904E+02
      2.459  0.3489E+02  0.1026E+03
      2.560  0.5018E-05  0.1026E+03
      2.662  0.2039E+02  0.1047E+03
      2.763  0.2188E+02  0.1069E+03
      2.865  0.4060E-06  0.1069E+03
      2.966  0.6073E+02  0.1131E+03
      3.068  0.2626E+02  0.1158E+03
      3.169  0.1739E+02  0.1175E+03
      3.271  0.4377E+01  0.1180E+03
      3.372  0.8745E+01  0.1189E+03
      3.474  0.1751E+02  0.1207E+03
      3.575  0.1740E+02  0.1224E+03
      3.677  0.2334E+02  0.1248E+03
      3.779  0.1751E+02  0.1266E+03
      3.880  0.8755E+01  0.1275E+03
      3.982  0.1751E+02  0.1293E+03
      4.083  0.5206E-07  0.1293E+03
      4.185  0.3156E+02  0.1325E+03
      4.286  0.3663E+00  0.1337E+03
      4.388  0.1010E+02  0.1365E+03
      4.489  0.8746E+01  0.1381E+03
      4.591  0.2598E+02  0.1408E+03
      4.692  0.1638E+02  0.1425E+03
      4.794  0.3484E+02  0.1469E+03
      4.895  0.8755E+01  0.1478E+03
      4.997  0.9037E+01  0.1487E+03
      5.098  0.2626E+02  0.1516E+03
      5.200  0.1829E+02  0.1534E+03
      5.302  0.0000E+00  0.1538E+03
      5.403  0.1619E+02  0.1554E+03
      5.505  0.5206E+02  0.1619E+03
      5.606  0.1740E+02  0.1637E+03
      5.708  0.4944E-03  0.1637E+03
      5.809  0.4373E+02  0.1681E+03
      5.911  0.0000E+00  0.1681E+03
      6.012  0.2477E+02  0.1707E+03
      6.114  0.4739E+02  0.1759E+03
      6.215  0.4377E+01  0.1764E+03
      6.317  0.3502E+02  0.1800E+03
      6.418  0.1751E+02  0.1818E+03
      6.520  0.1637E+02  0.1834E+03
      6.622  0.1416E+02  0.1850E+03
      6.723  0.1754E+02  0.1884E+03
      6.825  0.2794E+02  0.1922E+03
      6.926  0.1751E+02  0.1940E+03
      7.028  0.2857E+02  0.1969E+03
      7.129  0.4433E+02  0.2021E+03
      7.231  0.1690E+02  0.2039E+03
      7.332  0.9076E+01  0.2055E+03
      7.434  0.3857E+02  0.2112E+03
      7.535  0.8439E+01  0.2124E+03
      7.637  0.8978E+01  0.2134E+03
      7.738  0.3864E+02  0.2177E+03
      7.840  0.1644E+01  0.2184E+03
      7.941  0.4212E+02  0.2243E+03
      8.043  0.1313E+02  0.2267E+03
      8.145  0.2217E+02  0.2289E+03
      8.246  0.5454E+01  0.2299E+03
      8.348  0.5059E+01  0.2307E+03
      8.449  0.3878E+02  0.2361E+03
      8.551  0.5823E+02  0.2425E+03
      8.652  0.4231E+02  0.2468E+03
      8.754  0.1933E+02  0.2488E+03
      8.855  0.1534E+02  0.2506E+03
      8.957  0.1800E+02  0.2540E+03
      9.058  0.4824E+00  0.2549E+03
      9.160  0.8755E+01  0.2560E+03
      9.261  0.0000E+00  0.2560E+03
      9.363  0.0000E+00  0.2560E+03
      9.464  0.0000E+00  0.2560E+03
      9.566  0.0000E+00  0.2560E+03
      9.668  0.0000E+00  0.2560E+03
      9.769  0.0000E+00  0.2560E+03
      9.871  0.0000E+00  0.2560E+03
      9.972  0.0000E+00  0.2560E+03
     10.074  0.0000E+00  0.2560E+03
     10.175  0.0000E+00  0.2560E+03
     10.277  0.0000E+00  0.2560E+03
     10.378  0.0000E+00  0.2560E+03
     10.480  0.0000E+00  0.2560E+03
     10.581  0.0000E+00  0.2560E+03
     10.683  0.0000E+00  0.2560E+03
     10.784  0.0000E+00  0.2560E+03
     10.886  0.0000E+00  0.2560E+03
     10.988  0.0000E+00  0.2560E+03
     11.089  0.0000E+00  0.2560E+03
     11.191  0.0000E+00  0.2560E+03
     11.292  0.0000E+00  0.2560E+03
     11.394  0.0000E+00  0.2560E+03
     11.495  0.0000E+00  0.2560E+03
     11.597  0.0000E+00  0.2560E+03
     11.698  0.0000E+00  0.2560E+03
     11.800  0.0000E+00  0.2560E+03
     11.901  0.0000E+00  0.2560E+03
     12.003  0.0000E+00  0.2560E+03
     12.104  0.0000E+00  0.2560E+03
     12.206  0.0000E+00  0.2560E+03
     12.307  0.0000E+00  0.2560E+03
     12.409  0.7216E-04  0.2560E+03
     12.511  0.2189E+01  0.2562E+03
     12.612  0.0000E+00  0.2562E+03
     12.714  0.0000E+00  0.2562E+03
     12.815  0.0000E+00  0.2562E+03
     12.917  0.4230E+01  0.2567E+03
     13.018  0.0000E+00  0.2567E+03
     13.120  0.0000E+00  0.2567E+03
     13.221  0.6285E+01  0.2573E+03
     13.323  0.0000E+00  0.2576E+03
     13.424  0.7273E-04  0.2576E+03
     13.526  0.9122E+01  0.2585E+03
     13.627  0.0000E+00  0.2599E+03
     13.729  0.8509E+01  0.2608E+03
     13.830  0.0000E+00  0.2608E+03
     13.932  0.2713E-14  0.2608E+03
     14.034  0.1240E+02  0.2621E+03
     14.135  0.0000E+00  0.2621E+03
     14.237  0.4229E+01  0.2625E+03
     14.338  0.0000E+00  0.2625E+03
     14.440  0.3261E+00  0.2626E+03
     14.541  0.6832E-04  0.2643E+03
     14.643  0.4611E+01  0.2648E+03
     14.744  0.2817E-04  0.2665E+03
     14.846  0.1751E+02  0.2683E+03
     14.947  0.1500E+02  0.2698E+03
     15.049  0.1751E+02  0.2719E+03
     15.150  0.1825E+02  0.2737E+03
     15.252  0.1751E+02  0.2764E+03
     15.354  0.0000E+00  0.2764E+03
     15.455  0.0000E+00  0.2764E+03
     15.557  0.4377E+01  0.2768E+03
     15.658  0.1497E+02  0.2783E+03
     15.760  0.2407E+02  0.2812E+03
     15.861  0.5831E+01  0.2833E+03
     15.963  0.1821E+02  0.2852E+03
     16.064  0.1290E+02  0.2874E+03
     16.166  0.1520E+02  0.2890E+03
     16.267  0.8755E+01  0.2901E+03
     16.369  0.1751E+02  0.2919E+03
     16.470  0.2165E-04  0.2919E+03
     16.572  0.2188E+02  0.2941E+03
     16.673  0.1849E+02  0.2960E+03
     16.775  0.1946E+02  0.2980E+03
     16.877  0.1916E+02  0.3008E+03
     16.978  0.1699E+02  0.3027E+03
     17.080  0.3212E+02  0.3073E+03
     17.181  0.2831E+02  0.3107E+03
     17.283  0.4377E+01  0.3118E+03
     17.384  0.1944E-14  0.3118E+03
     17.486  0.8840E+01  0.3127E+03
     17.587  0.1983E+02  0.3160E+03
     17.689  0.1221E-03  0.3162E+03
     17.790  0.2085E+02  0.3183E+03
     17.892  0.8754E+01  0.3198E+03
     17.993  0.4424E-04  0.3198E+03
     18.095  0.2189E+01  0.3200E+03
     18.196  0.0000E+00  0.3200E+03
     18.298  0.0000E+00  0.3200E+03
     18.400  0.0000E+00  0.3200E+03
     18.501  0.0000E+00  0.3200E+03
     18.603  0.0000E+00  0.3200E+03
     18.704  0.0000E+00  0.3200E+03
     18.806  0.0000E+00  0.3200E+03
     18.907  0.0000E+00  0.3200E+03
     19.009  0.0000E+00  0.3200E+03
     19.110  0.0000E+00  0.3200E+03
     19.212  0.0000E+00  0.3200E+03
     19.313  0.0000E+00  0.3200E+03
     19.415  0.0000E+00  0.3200E+03
