 vasp.5.4.1 05Feb16 (build Mar 26 2016 11:58:25) complex                        
  
 executed on           IFC91_ompi date 2016.06.01  10:57:47
 running on   16 total cores
 distrk:  each k-point on   16 cores,    1 groups
 distr:  one band on NCORES_PER_BAND=   1 cores,   16 groups


--------------------------------------------------------------------------------------------------------


 INCAR:
 POTCAR:   PAW_PBE Si 05Jan2001                   
 POTCAR:   PAW_PBE N 08Apr2002                    

 ----------------------------------------------------------------------------- 
|                                                                             |
|           W    W    AA    RRRRR   N    N  II  N    N   GGGG   !!!           |
|           W    W   A  A   R    R  NN   N  II  NN   N  G    G  !!!           |
|           W    W  A    A  R    R  N N  N  II  N N  N  G       !!!           |
|           W WW W  AAAAAA  RRRRR   N  N N  II  N  N N  G  GGG   !            |
|           WW  WW  A    A  R   R   N   NN  II  N   NN  G    G                |
|           W    W  A    A  R    R  N    N  II  N    N   GGGG   !!!           |
|                                                                             |
|      For optimal performance we recommend to set                            |
|        NCORE= 4 - approx SQRT( number of cores)                             |
|      NCORE specifies how many cores store one orbital (NPAR=cpu/NCORE).     |
|      This setting can  greatly improve the performance of VASP for DFT.     |
|      The default, NPAR=number of cores might be grossly inefficient         |
|      on modern multi-core architectures or massively parallel machines.     |
|      Do your own testing !!!!                                               |
|      Unfortunately you need to use the default for GW and RPA calculations. |
|      (for HF NCORE is supported but not extensively tested yet)             |
|                                                                             |
 ----------------------------------------------------------------------------- 

 POTCAR:   PAW_PBE Si 05Jan2001                   
   VRHFIN =Si: s2p2                                                             
   LEXCH  = PE                                                                  
   EATOM  =   103.0669 eV,    7.5752 Ry                                         
                                                                                
   TITEL  = PAW_PBE Si 05Jan2001                                                
   LULTRA =        F    use ultrasoft PP ?                                      
   IUNSCR =        1    unscreen: 0-lin 1-nonlin 2-no                           
   RPACOR =    1.500    partial core radius                                     
   POMASS =   28.085; ZVAL   =    4.000    mass and valenz                      
   RCORE  =    1.900    outmost cutoff radius                                   
   RWIGS  =    2.480; RWIGS  =    1.312    wigner-seitz radius (au A)           
   ENMAX  =  245.345; ENMIN  =  184.009 eV                                      
   ICORE  =        2    local potential                                         
   LCOR   =        T    correct aug charges                                     
   LPAW   =        T    paw PP                                                  
   EAUG   =  322.069                                                            
   DEXC   =    -.007                                                            
   RMAX   =    2.944    core radius for proj-oper                               
   RAUG   =    1.300    factor for augmentation sphere                          
   RDEP   =    1.993    radius for radial grids                                 
   QCUT   =   -4.246; QGAM   =    8.493    optimization parameters              
                                                                                
   Description                                                                  
     l     E      TYP  RCUT    TYP  RCUT                                        
     0   .000     23  1.900                                                     
     0   .000     23  1.900                                                     
     1   .000     23  1.900                                                     
     1   .000     23  1.900                                                     
     2   .000      7  1.900                                                     
  local pseudopotential read in
  partial core-charges read in
  atomic valenz-charges read in
  non local Contribution for L=           0  read in
    real space projection operators read in
  non local Contribution for L=           0  read in
    real space projection operators read in
  non local Contribution for L=           1  read in
    real space projection operators read in
  non local Contribution for L=           1  read in
    real space projection operators read in
    PAW grid and wavefunctions read in
 
   number of l-projection  operators is LMAX  =           4
   number of lm-projection operators is LMMAX =           8
 
 POTCAR:   PAW_PBE N 08Apr2002                    
   VRHFIN =N: s2p3                                                              
   LEXCH  = PE                                                                  
   EATOM  =   264.5486 eV,   19.4438 Ry                                         
                                                                                
   TITEL  = PAW_PBE N 08Apr2002                                                 
   LULTRA =        F    use ultrasoft PP ?                                      
   IUNSCR =        0    unscreen: 0-lin 1-nonlin 2-no                           
   RPACOR =     .000    partial core radius                                     
   POMASS =   14.001; ZVAL   =    5.000    mass and valenz                      
   RCORE  =    1.500    outmost cutoff radius                                   
   RWIGS  =    1.400; RWIGS  =     .741    wigner-seitz radius (au A)           
   ENMAX  =  400.000; ENMIN  =  300.000 eV                                      
   ICORE  =        2    local potential                                         
   LCOR   =        T    correct aug charges                                     
   LPAW   =        T    paw PP                                                  
   EAUG   =  627.112                                                            
   DEXC   =     .000                                                            
   RMAX   =    2.247    core radius for proj-oper                               
   RAUG   =    1.300    factor for augmentation sphere                          
   RDEP   =    1.514    radius for radial grids                                 
   QCUT   =   -5.562; QGAM   =   11.124    optimization parameters              
                                                                                
   Description                                                                  
     l     E      TYP  RCUT    TYP  RCUT                                        
     0   .000     23  1.200                                                     
     0   .000     23  1.200                                                     
     1   .000     23  1.500                                                     
     1   .700     23  1.500                                                     
     2   .000      7  1.500                                                     
  local pseudopotential read in
  atomic valenz-charges read in
  non local Contribution for L=           0  read in
    real space projection operators read in
  non local Contribution for L=           0  read in
    real space projection operators read in
  non local Contribution for L=           1  read in
    real space projection operators read in
  non local Contribution for L=           1  read in
    real space projection operators read in
    PAW grid and wavefunctions read in
 
   number of l-projection  operators is LMAX  =           4
   number of lm-projection operators is LMMAX =           8
 

 ----------------------------------------------------------------------------- 
|                                                                             |
|  ADVICE TO THIS USER RUNNING 'VASP/VAMP'   (HEAR YOUR MASTER'S VOICE ...):  |
|                                                                             |
|      You have a (more or less) 'large supercell' and for larger cells       |
|      it might be more efficient to use real space projection operators      |
|      So try LREAL= Auto  in the INCAR   file.                               |
|      Mind: If you want to do a very accurate calculations keep the          |
|      reciprocal projection scheme          (i.e. LREAL=.FALSE.)             |
|                                                                             |
 ----------------------------------------------------------------------------- 

 PAW_PBE Si 05Jan2001                   :
 energy of atom  1       EATOM= -103.0669
 kinetic energy error for atom=    0.0006 (will be added to EATOM!!)
 PAW_PBE N 08Apr2002                    :
 energy of atom  2       EATOM= -264.5486
 kinetic energy error for atom=    0.0138 (will be added to EATOM!!)
 
 
 POSCAR: gamma-si3n4-opt-unit.car                
  positions in direct lattice
  velocities in cartesian coordinates
 exchange correlation table for  LEXCH =        8
   RHO(1)=    0.500       N(1)  =     2000
   RHO(2)=  100.500       N(2)  =     4000
 


--------------------------------------------------------------------------------------------------------


 ion  position               nearest neighbor table
   1  0.125  0.875  0.875-  25 1.89  28 1.89  54 1.89  36 1.89  30 1.89  29 1.89   2 2.75  22 2.75
                            19 2.75   4 2.75   8 2.75   9 2.75
   2  0.875  0.125  0.875-  25 1.89  28 1.89  53 1.89  33 1.89  32 1.89  31 1.89   1 2.75  22 2.75
                            19 2.75   3 2.75  10 2.75   7 2.75
   3  0.625  0.375  0.875-  56 1.89  27 1.89  26 1.89  31 1.89  35 1.89  32 1.89  20 2.75  21 2.75
                             4 2.75   2 2.75   7 2.75  10 2.75
   4  0.375  0.625  0.875-  55 1.89  27 1.89  26 1.89  29 1.89  34 1.89  30 1.89  20 2.75  21 2.75
                             3 2.75   1 2.75   9 2.75   8 2.75
   5  0.750  0.750  0.750-  38 1.79  39 1.79  26 1.79  25 1.79
   6  0.250  0.250  0.750-  37 1.79  40 1.79  27 1.79  28 1.79
   7  0.625  0.125  0.625-  39 1.89  40 1.89  42 1.89  33 1.89  32 1.89  35 1.89   8 2.75  16 2.75
                            15 2.75   3 2.75  10 2.75   2 2.75
   8  0.375  0.875  0.625-  40 1.89  41 1.89  39 1.89  29 1.89  34 1.89  36 1.89  15 2.75   7 2.75
                            16 2.75   1 2.75   9 2.75   4 2.75
   9  0.125  0.625  0.625-  38 1.89  37 1.89  44 1.89  36 1.89  30 1.89  34 1.89  10 2.75  13 2.75
                            14 2.75   8 2.75   4 2.75   1 2.75
  10  0.875  0.375  0.625-  37 1.89  43 1.89  38 1.89  35 1.89  31 1.89  33 1.89  14 2.75   9 2.75
                            13 2.75   2 2.75   7 2.75   3 2.75
  11  0.000  0.000  0.500-  48 1.79  36 1.79  33 1.79  46 1.79
  12  0.500  0.500  0.500-  47 1.79  35 1.79  45 1.79  34 1.79
  13  0.875  0.625  0.375-  44 1.89  43 1.89  38 1.89  45 1.89  48 1.89  52 1.89  14 2.75   9 2.75
                            10 2.75  22 2.75  21 2.75  16 2.75
  14  0.125  0.375  0.375-  43 1.89  46 1.89  49 1.89  47 1.89  44 1.89  37 1.89  10 2.75  13 2.75
                            15 2.75  20 2.75  19 2.75   9 2.75
  15  0.375  0.125  0.375-  41 1.89  46 1.89  50 1.89  47 1.89  42 1.89  40 1.89   8 2.75  16 2.75
                            14 2.75  20 2.75  19 2.75   7 2.75
  16  0.625  0.875  0.375-  42 1.89  41 1.89  39 1.89  45 1.89  48 1.89  51 1.89  15 2.75   7 2.75
                             8 2.75  22 2.75  21 2.75  13 2.75
  17  0.250  0.750  0.250-  44 1.79  55 1.79  41 1.79  54 1.79
  18  0.750  0.250  0.250-  42 1.79  56 1.79  43 1.79  53 1.79
  19  0.125  0.125  0.125-  53 1.89  28 1.89  54 1.89  50 1.89  49 1.89  46 1.89   1 2.75   2 2.75
                            22 2.75  15 2.75  20 2.75  14 2.75
  20  0.375  0.375  0.125-  27 1.89  49 1.89  50 1.89  47 1.89  56 1.89  55 1.89   3 2.75   4 2.75
                            14 2.75  15 2.75  19 2.75  21 2.75
  21  0.625  0.625  0.125-  26 1.89  55 1.89  56 1.89  52 1.89  51 1.89  45 1.89   3 2.75   4 2.75
                            20 2.75  16 2.75  13 2.75  22 2.75
  22  0.875  0.875  0.125-  25 1.89  54 1.89  53 1.89  51 1.89  52 1.89  48 1.89   1 2.75   2 2.75
                            19 2.75  16 2.75  13 2.75  21 2.75
  23  0.500  0.000  0.000-  29 1.79  32 1.79  51 1.79  50 1.79
  24  0.000  0.500  0.000-  31 1.79  30 1.79  52 1.79  49 1.79
  25  0.882  0.882  0.882-   5 1.79  22 1.89   1 1.89   2 1.89
  26  0.618  0.618  0.882-   5 1.79  21 1.89   3 1.89   4 1.89
  27  0.382  0.382  0.882-   6 1.79  20 1.89   3 1.89   4 1.89
  28  0.118  0.118  0.882-   6 1.79   2 1.89   1 1.89  19 1.89
  29  0.368  0.868  0.868-  23 1.79   8 1.89   4 1.89   1 1.89
  30  0.132  0.632  0.868-  24 1.79   1 1.89   9 1.89   4 1.89
  31  0.868  0.368  0.868-  24 1.79  10 1.89   3 1.89   2 1.89
  32  0.632  0.132  0.868-  23 1.79   2 1.89   7 1.89   3 1.89
  33  0.868  0.132  0.632-  11 1.79   7 1.89   2 1.89  10 1.89
  34  0.368  0.632  0.632-  12 1.79   8 1.89   4 1.89   9 1.89
  35  0.632  0.368  0.632-  12 1.79  10 1.89   3 1.89   7 1.89
  36  0.132  0.868  0.632-  11 1.79   1 1.89   9 1.89   8 1.89
  37  0.118  0.382  0.618-   6 1.79  10 1.89  14 1.89   9 1.89
  38  0.882  0.618  0.618-   5 1.79   9 1.89  13 1.89  10 1.89
  39  0.618  0.882  0.618-   5 1.79   7 1.89   8 1.89  16 1.89
  40  0.382  0.118  0.618-   6 1.79   8 1.89   7 1.89  15 1.89
  41  0.382  0.882  0.382-  17 1.79  15 1.89   8 1.89  16 1.89
  42  0.618  0.118  0.382-  18 1.79  16 1.89  15 1.89   7 1.89
  43  0.882  0.382  0.382-  18 1.79  14 1.89  10 1.89  13 1.89
  44  0.118  0.618  0.382-  17 1.79  13 1.89  14 1.89   9 1.89
  45  0.632  0.632  0.368-  12 1.79  13 1.89  16 1.89  21 1.89
  46  0.132  0.132  0.368-  11 1.79  14 1.89  15 1.89  19 1.89
  47  0.368  0.368  0.368-  12 1.79  14 1.89  15 1.89  20 1.89
  48  0.868  0.868  0.368-  11 1.79  13 1.89  16 1.89  22 1.89
  49  0.132  0.368  0.132-  24 1.79  20 1.89  14 1.89  19 1.89
  50  0.368  0.132  0.132-  23 1.79  15 1.89  20 1.89  19 1.89
  51  0.632  0.868  0.132-  23 1.79  22 1.89  21 1.89  16 1.89
  52  0.868  0.632  0.132-  24 1.79  21 1.89  22 1.89  13 1.89
  53  0.882  0.118  0.118-  18 1.79   2 1.89  19 1.89  22 1.89
  54  0.118  0.882  0.118-  17 1.79   1 1.89  22 1.89  19 1.89
  55  0.382  0.618  0.118-  17 1.79   4 1.89  21 1.89  20 1.89
  56  0.618  0.382  0.118-  18 1.79   3 1.89  20 1.89  21 1.89
 
  LATTYP: Found a simple cubic cell.
 ALAT       =     7.7867631903
  
  Lattice vectors:
  
 A1 = (   7.7867631903,   0.0000000000,   0.0000000000)
 A2 = (   0.0000000000,   7.7867631903,   0.0000000000)
 A3 = (   0.0000000000,   0.0000000000,   7.7867631903)


Analysis of symmetry for initial positions (statically):
=====================================================================
 Subroutine PRICEL returns following result:
 
  LATTYP: Found a face centered cubic cell.
 ALAT       =     7.7867631903
  
  Lattice vectors:
  
 A1 = (   3.8933815952,   3.8933815952,   0.0000000000)
 A2 = (   3.8933815952,   0.0000000000,  -3.8933815952)
 A3 = (   0.0000000000,   3.8933815952,  -3.8933815952)
 
   4 primitive cells build up your supercell.
 

 Routine SETGRP: Setting up the symmetry group for a 
 simple cubic supercell.


 Subroutine GETGRP returns: Found 48 space group operations
 (whereof 24 operations were pure point group operations)
 out of a pool of 48 trial point group operations.


The static configuration has the point symmetry T_d .
 The point group associated with its full space group is O_h .


Analysis of symmetry for dynamics (positions and initial velocities):
=====================================================================
 Subroutine PRICEL returns following result:
 
  LATTYP: Found a face centered cubic cell.
 ALAT       =     7.7867631903
  
  Lattice vectors:
  
 A1 = (   3.8933815952,   3.8933815952,   0.0000000000)
 A2 = (   3.8933815952,   0.0000000000,  -3.8933815952)
 A3 = (   0.0000000000,   3.8933815952,  -3.8933815952)
 
   4 primitive cells build up your supercell.
 

 Routine SETGRP: Setting up the symmetry group for a 
 simple cubic supercell.


 Subroutine GETGRP returns: Found 48 space group operations
 (whereof 24 operations were pure point group operations)
 out of a pool of 48 trial point group operations.


The dynamic configuration has the point symmetry T_d .
 The point group associated with its full space group is O_h .


Analysis of constrained symmetry for selective dynamics:
=====================================================================
 Subroutine PRICEL returns following result:
 
  LATTYP: Found a face centered cubic cell.
 ALAT       =     7.7867631903
  
  Lattice vectors:
  
 A1 = (   3.8933815952,   3.8933815952,   0.0000000000)
 A2 = (   3.8933815952,   0.0000000000,  -3.8933815952)
 A3 = (   0.0000000000,   3.8933815952,  -3.8933815952)
 
   4 primitive cells build up your supercell.
 

 Routine SETGRP: Setting up the symmetry group for a 
 simple cubic supercell.


 Subroutine GETGRP returns: Found 48 space group operations
 (whereof 24 operations were pure point group operations)
 out of a pool of 48 trial point group operations.


The constrained configuration has the point symmetry T_d .
 The point group associated with its full space group is O_h .


 Subroutine INISYM returns: Found 48 space group operations
 (whereof 24 operations are pure point group operations),
 and found     4 'primitive' translations

 
 
 KPOINTS: Automatic mesh                          

Automatic generation of k-mesh.
Space group operators:
 irot       det(A)        alpha          n_x          n_y          n_z        tau_x        tau_y        tau_z
    1     1.000000     0.000000     1.000000     0.000000     0.000000     0.000000     0.000000     0.000000
    2     1.000000   120.000000    -0.577350    -0.577350    -0.577350     0.000000     0.000000     0.000000
    3     1.000000   120.000000     0.577350     0.577350     0.577350     0.000000     0.000000     0.000000
    4    -1.000000    90.000000     0.000000     0.000000    -1.000000     0.000000     0.000000     0.000000
    5    -1.000000   180.000000     0.000000    -0.707107    -0.707107     0.000000     0.000000     0.000000
    6    -1.000000    90.000000     0.000000     1.000000     0.000000     0.000000     0.000000     0.000000
    7     1.000000   180.000000     0.000000     0.000000     1.000000     0.000000     0.000000     0.000000
    8     1.000000   120.000000    -0.577350     0.577350     0.577350     0.000000     0.000000     0.000000
    9     1.000000   120.000000    -0.577350     0.577350    -0.577350     0.000000     0.000000     0.000000
   10    -1.000000    90.000000     0.000000     0.000000     1.000000     0.000000     0.000000     0.000000
   11    -1.000000    90.000000    -1.000000     0.000000     0.000000     0.000000     0.000000     0.000000
   12    -1.000000   179.999999     0.707107     0.000000     0.707107     0.000000     0.000000     0.000000
   13     1.000000   120.000000     0.577350    -0.577350     0.577350     0.000000     0.000000     0.000000
   14     1.000000   120.000000    -0.577350    -0.577350     0.577350     0.000000     0.000000     0.000000
   15     1.000000   180.000000     1.000000     0.000000     0.000000     0.000000     0.000000     0.000000
   16    -1.000000    90.000000     0.000000    -1.000000     0.000000     0.000000     0.000000     0.000000
   17    -1.000000   180.000000    -0.707107    -0.707107     0.000000     0.000000     0.000000     0.000000
   18    -1.000000    90.000000     1.000000     0.000000     0.000000     0.000000     0.000000     0.000000
   19     1.000000   120.000000     0.577350    -0.577350    -0.577350     0.000000     0.000000     0.000000
   20     1.000000   180.000000     0.000000     1.000000     0.000000     0.000000     0.000000     0.000000
   21     1.000000   120.000000     0.577350     0.577350    -0.577350     0.000000     0.000000     0.000000
   22    -1.000000   180.000000     0.000000    -0.707107     0.707107     0.000000     0.000000     0.000000
   23    -1.000000   180.000000    -0.707107     0.707107     0.000000     0.000000     0.000000     0.000000
   24    -1.000000   180.000000    -0.707107     0.000000     0.707107     0.000000     0.000000     0.000000
   25    -1.000000     0.000000     1.000000     0.000000     0.000000     0.750000     0.750000    -0.750000
   26    -1.000000   120.000000    -0.577350    -0.577350    -0.577350     0.750000     0.750000    -0.750000
   27    -1.000000   120.000000     0.577350     0.577350     0.577350     0.750000     0.750000    -0.750000
   28     1.000000    90.000000     0.000000     0.000000    -1.000000     0.750000     0.750000    -0.750000
   29     1.000000   180.000000     0.000000    -0.707107    -0.707107     0.750000     0.750000    -0.750000
   30     1.000000    90.000000     0.000000     1.000000     0.000000     0.750000     0.750000    -0.750000
   31    -1.000000   180.000000     0.000000     0.000000     1.000000     0.750000     0.750000    -0.750000
   32    -1.000000   120.000000    -0.577350     0.577350     0.577350     0.750000     0.750000    -0.750000
   33    -1.000000   120.000000    -0.577350     0.577350    -0.577350     0.750000     0.750000    -0.750000
   34     1.000000    90.000000     0.000000     0.000000     1.000000     0.750000     0.750000    -0.750000
   35     1.000000    90.000000    -1.000000     0.000000     0.000000     0.750000     0.750000    -0.750000
   36     1.000000   179.999999     0.707107     0.000000     0.707107     0.750000     0.750000    -0.750000
   37    -1.000000   120.000000     0.577350    -0.577350     0.577350     0.750000     0.750000    -0.750000
   38    -1.000000   120.000000    -0.577350    -0.577350     0.577350     0.750000     0.750000    -0.750000
   39    -1.000000   180.000000     1.000000     0.000000     0.000000     0.750000     0.750000    -0.750000
   40     1.000000    90.000000     0.000000    -1.000000     0.000000     0.750000     0.750000    -0.750000
   41     1.000000   180.000000    -0.707107    -0.707107     0.000000     0.750000     0.750000    -0.750000
   42     1.000000    90.000000     1.000000     0.000000     0.000000     0.750000     0.750000    -0.750000
   43    -1.000000   120.000000     0.577350    -0.577350    -0.577350     0.750000     0.750000    -0.750000
   44    -1.000000   180.000000     0.000000     1.000000     0.000000     0.750000     0.750000    -0.750000
   45    -1.000000   120.000000     0.577350     0.577350    -0.577350     0.750000     0.750000    -0.750000
   46     1.000000   180.000000     0.000000    -0.707107     0.707107     0.750000     0.750000    -0.750000
   47     1.000000   180.000000    -0.707107     0.707107     0.000000     0.750000     0.750000    -0.750000
   48     1.000000   180.000000    -0.707107     0.000000     0.707107     0.750000     0.750000    -0.750000
 
 Subroutine IBZKPT returns following result:
 ===========================================
 
 Found      4 irreducible k-points:
 
 Following reciprocal coordinates:
            Coordinates               Weight
  0.000000  0.000000  0.000000      1.000000
  0.333333  0.000000  0.000000      6.000000
  0.333333  0.333333  0.000000     12.000000
  0.333333  0.333333  0.333333      8.000000
 
 Following cartesian coordinates:
            Coordinates               Weight
  0.000000  0.000000  0.000000      1.000000
  0.042808  0.000000  0.000000      6.000000
  0.042808  0.042808  0.000000     12.000000
  0.042808  0.042808  0.042808      8.000000
 
 
 Subroutine IBZKPT_HF returns following result:
 ==============================================
 
 Found     27 k-points in 1st BZ
 the following     27 k-points will be used (e.g. in the exchange kernel)
 Following reciprocal coordinates:   # in IRBZ
  0.000000  0.000000  0.000000    0.03703704   1 t-inv F
  0.333333  0.000000  0.000000    0.03703704   2 t-inv F
  0.333333  0.333333  0.000000    0.03703704   3 t-inv F
  0.333333  0.333333  0.333333    0.03703704   4 t-inv F
  0.000000  0.333333  0.000000    0.03703704   2 t-inv F
  0.000000  0.000000  0.333333    0.03703704   2 t-inv F
  0.000000 -0.333333  0.000000    0.03703704   2 t-inv F
  0.000000  0.000000 -0.333333    0.03703704   2 t-inv F
 -0.333333  0.000000  0.000000    0.03703704   2 t-inv F
  0.000000  0.333333  0.333333    0.03703704   3 t-inv F
  0.333333  0.000000  0.333333    0.03703704   3 t-inv F
  0.333333 -0.333333  0.000000    0.03703704   3 t-inv F
  0.333333  0.000000 -0.333333    0.03703704   3 t-inv F
  0.000000 -0.333333 -0.333333    0.03703704   3 t-inv F
 -0.333333 -0.333333  0.000000    0.03703704   3 t-inv F
  0.000000 -0.333333  0.333333    0.03703704   3 t-inv F
 -0.333333  0.000000  0.333333    0.03703704   3 t-inv F
 -0.333333  0.333333  0.000000    0.03703704   3 t-inv F
 -0.333333  0.000000 -0.333333    0.03703704   3 t-inv F
  0.000000  0.333333 -0.333333    0.03703704   3 t-inv F
  0.333333 -0.333333 -0.333333    0.03703704   4 t-inv F
 -0.333333 -0.333333  0.333333    0.03703704   4 t-inv F
 -0.333333  0.333333 -0.333333    0.03703704   4 t-inv F
 -0.333333 -0.333333 -0.333333    0.03703704   4 t-inv F
 -0.333333  0.333333  0.333333    0.03703704   4 t-inv F
  0.333333  0.333333 -0.333333    0.03703704   4 t-inv F
  0.333333 -0.333333  0.333333    0.03703704   4 t-inv F


--------------------------------------------------------------------------------------------------------




 Dimension of arrays:
   k-points           NKPTS =      4   k-points in BZ     NKDIM =      4   number of bands    NBANDS=    160
   number of dos      NEDOS =    301   number of ions     NIONS =     56
   non local maximal  LDIM  =      4   non local SUM 2l+1 LMDIM =      8
   total plane-waves  NPLWV = 216000
   max r-space proj   IRMAX =      1   max aug-charges    IRDMAX= 122555
   dimension x,y,z NGX =    60 NGY =   60 NGZ =   60
   dimension x,y,z NGXF=   120 NGYF=  120 NGZF=  120
   support grid    NGXF=   240 NGYF=  240 NGZF=  240
   ions per type =              24  32
 NGX,Y,Z   is equivalent  to a cutoff of  12.81, 12.81, 12.81 a.u.
 NGXF,Y,Z  is equivalent  to a cutoff of  25.62, 25.62, 25.62 a.u.


 I would recommend the setting:
   dimension x,y,z NGX =    57 NGY =   57 NGZ =   57
 SYSTEM =  POSCAR (VASP)                           
 POSCAR =  gamma-si3n4-opt-unit.car                

 Startparameter for this run:
   NWRITE =      2    write-flag & timer
   PREC   = accura    normal or accurate (medium, high low for compatibility)
   ISTART =      0    job   : 0-new  1-cont  2-samecut
   ICHARG =      2    charge: 1-file 2-atom 10-const
   ISPIN  =      1    spin polarized calculation?
   LNONCOLLINEAR =      F non collinear calculations
   LSORBIT =      F    spin-orbit coupling
   INIWAV =      1    electr: 0-lowe 1-rand  2-diag
   LASPH  =      F    aspherical Exc in radial PAW
   METAGGA=      F    non-selfconsistent MetaGGA calc.

 Electronic Relaxation 1
   ENCUT  =  500.0 eV  36.75 Ry    6.06 a.u.  14.20 14.20 14.20*2*pi/ulx,y,z
   ENINI  =  500.0     initial cutoff
   ENAUG  =  627.1 eV  augmentation charge cutoff
   NELM   =     60;   NELMIN=  2; NELMDL=  0     # of ELM steps 
   EDIFF  = 0.1E-07   stopping-criterion for ELM
   LREAL  =      F    real-space projection
   NLSPLINE    = F    spline interpolate recip. space projectors
   LCOMPAT=      F    compatible to vasp.4.4
   GGA_COMPAT  = T    GGA compatible to vasp.4.4-vasp.4.6
   LMAXPAW     = -100 max onsite density
   LMAXMIX     =    2 max onsite mixed and CHGCAR
   VOSKOWN=      0    Vosko Wilk Nusair interpolation
   ROPT   =    0.00000   0.00000
 Ionic relaxation
   EDIFFG = 0.1E-06   stopping-criterion for IOM
   NSW    =    709    number of steps for IOM
   NBLOCK =      1;   KBLOCK =      1    inner block; outer block 
   IBRION =      6    ionic relax: 0-MD 1-quasi-New 2-CG
   NFREE  =      2    steps in history (QN), initial steepest desc. (CG)
   ISIF   =      3    stress and relaxation
   IWAVPR =     11    prediction:  0-non 1-charg 2-wave 3-comb
   ISYM   =      2    0-nonsym 1-usesym 2-fastsym
   LCORR  =      T    Harris-Foulkes like correction to forces

   POTIM  = 0.5000    time-step for ionic-motion
   TEIN   =    0.0    initial temperature
   TEBEG  =    0.0;   TEEND  =   0.0 temperature during run
   SMASS  =  -3.00    Nose mass-parameter (am)
   estimated Nose-frequenzy (Omega)   =  0.10E-29 period in steps =****** mass=  -0.139E-26a.u.
   SCALEE = 1.0000    scale energy and forces
   NPACO  =    256;   APACO  = 16.0  distance and # of slots for P.C.
   PSTRESS=    0.0 pullay stress

  Mass of Ions in am
   POMASS =  28.09 14.00
  Ionic Valenz
   ZVAL   =   4.00  5.00
  Atomic Wigner-Seitz radii
   RWIGS  =  -1.00 -1.00
  virtual crystal weights 
   VCA    =   1.00  1.00
   NELECT =     256.0000    total number of electrons
   NUPDOWN=      -1.0000    fix difference up-down

 DOS related values:
   EMIN   =  10.00;   EMAX   =-10.00  energy-range for DOS
   EFERMI =   0.00
   ISMEAR =     0;   SIGMA  =   0.01  broadening in eV -4-tet -1-fermi 0-gaus

 Electronic relaxation 2 (details)
   IALGO  =     38    algorithm
   LDIAG  =      T    sub-space diagonalisation (order eigenvalues)
   LSUBROT=      F    optimize rotation matrix (better conditioning)
   TURBO    =      0    0=normal 1=particle mesh
   IRESTART =      0    0=no restart 2=restart with 2 vectors
   NREBOOT  =      0    no. of reboots
   NMIN     =      0    reboot dimension
   EREF     =   0.00    reference energy to select bands
   IMIX   =      4    mixing-type and parameters
     AMIX     =   0.40;   BMIX     =  1.00
     AMIX_MAG =   1.60;   BMIX_MAG =  1.00
     AMIN     =   0.10
     WC   =   100.;   INIMIX=   1;  MIXPRE=   1;  MAXMIX= -45

 Intra band minimization:
   WEIMIN = 0.0010     energy-eigenvalue tresh-hold
   EBREAK =  0.16E-10  absolut break condition
   DEPER  =   0.30     relativ break condition  

   TIME   =   0.40     timestep for ELM

  volume/ion in A,a.u.               =       8.43        56.90
  Fermi-wavevector in a.u.,A,eV,Ry     =   1.334949  2.522687 24.246773  1.782088
  Thomas-Fermi vector in A             =   2.463691
 
 Write flags
   LWAVE  =      F    write WAVECAR
   LCHARG =      F    write CHGCAR
   LVTOT  =      F    write LOCPOT, total local potential
   LVHAR  =      F    write LOCPOT, Hartree potential only
   LELF   =      F    write electronic localiz. function (ELF)
   LORBIT =      0    0 simple, 1 ext, 2 COOP (PROOUT)


 Dipole corrections
   LMONO  =      F    monopole corrections only (constant potential shift)
   LDIPOL =      F    correct potential (dipole corrections)
   IDIPOL =      0    1-x, 2-y, 3-z, 4-all directions 
   EPSILON=  1.0000000 bulk dielectric constant

 Exchange correlation treatment:
   GGA     =    --    GGA type
   LEXCH   =     8    internal setting for exchange type
   VOSKOWN=      0    Vosko Wilk Nusair interpolation
   LHFCALC =     F    Hartree Fock is set to
   LHFONE  =     F    Hartree Fock one center treatment
   AEXX    =    0.0000 exact exchange contribution

 Linear response parameters
   LEPSILON=     F    determine dielectric tensor
   LRPA    =     F    only Hartree local field effects (RPA)
   LNABLA  =     F    use nabla operator in PAW spheres
   LVEL    =     F    velocity operator in full k-point grid
   LINTERFAST=   F  fast interpolation
   KINTER  =     0    interpolate to denser k-point grid
   CSHIFT  =0.1000    complex shift for real part using Kramers Kronig
   OMEGAMAX=  -1.0    maximum frequency
   DEG_THRESHOLD= 0.2000000E-02 threshold for treating states as degnerate
   RTIME   =    0.100 relaxation time in fs

 Orbital magnetization related:
   ORBITALMAG=     F  switch on orbital magnetization
   LCHIMAG   =     F  perturbation theory with respect to B field
   DQ        =  0.001000  dq finite difference perturbation B field



--------------------------------------------------------------------------------------------------------


 finite differences with symmetry
   using selective dynamics as specified on POSCAR
 charge density and potential will be updated during run
 non-spin polarized calculation
 Variant of blocked Davidson
 Davidson routine will perform the subspace rotation
 perform sub-space diagonalisation
    after iterative eigenvector-optimisation
 modified Broyden-mixing scheme, WC =      100.0
 initial mixing is a Kerker type mixing with AMIX =  0.4000 and BMIX =      1.0000
 Hartree-type preconditioning will be used
 using additional bands           32
 reciprocal scheme for non local part
 use partial core corrections
 calculate Harris-corrections to forces 
   (improved forces if not selfconsistent)
 use gradient corrections 
 use of overlap-Matrix (Vanderbilt PP)
 Gauss-broadening in eV      SIGMA  =   0.01


--------------------------------------------------------------------------------------------------------


  energy-cutoff  :      500.00
  volume of cell :      472.14
      direct lattice vectors                 reciprocal lattice vectors
     7.786763190  0.000000000  0.000000000     0.128423066  0.000000000  0.000000000
     0.000000000  7.786763190  0.000000000     0.000000000  0.128423066  0.000000000
     0.000000000  0.000000000  7.786763190     0.000000000  0.000000000  0.128423066

  length of vectors
     7.786763190  7.786763190  7.786763190     0.128423066  0.128423066  0.128423066


 
 k-points in units of 2pi/SCALE and weight: Automatic mesh                          
   0.00000000  0.00000000  0.00000000       0.037
   0.04280769  0.00000000  0.00000000       0.222
   0.04280769  0.04280769  0.00000000       0.444
   0.04280769  0.04280769  0.04280769       0.296
 
 k-points in reciprocal lattice and weights: Automatic mesh                          
   0.00000000  0.00000000  0.00000000       0.037
   0.33333333  0.00000000  0.00000000       0.222
   0.33333333  0.33333333  0.00000000       0.444
   0.33333333  0.33333333  0.33333333       0.296
 
 position of ions in fractional coordinates (direct lattice) 
   0.12500002  0.87500015  0.87500015
   0.87500015  0.12500002  0.87500015
   0.62500010  0.37500006  0.87500015
   0.37500006  0.62500010  0.87500015
   0.75000012  0.75000012  0.75000012
   0.25000004  0.25000004  0.75000012
   0.62500010  0.12500002  0.62500010
   0.37500006  0.87500015  0.62500010
   0.12500002  0.62500010  0.62500010
   0.87500015  0.37500006  0.62500010
   0.00000000  0.00000000  0.50000008
   0.50000008  0.50000008  0.50000008
   0.87500015  0.62500010  0.37500006
   0.12500002  0.37500006  0.37500006
   0.37500006  0.12500002  0.37500006
   0.62500010  0.87500015  0.37500006
   0.25000004  0.75000012  0.25000004
   0.75000012  0.25000004  0.25000004
   0.12500002  0.12500002  0.12500002
   0.37500006  0.37500006  0.12500002
   0.62500010  0.62500010  0.12500002
   0.87500015  0.87500015  0.12500002
   0.50000008  0.00000000  0.00000000
   0.00000000  0.50000008  0.00000000
   0.88243733  0.88243733  0.88243733
   0.61756292  0.61756292  0.88243733
   0.38243724  0.38243724  0.88243733
   0.11756284  0.11756284  0.88243733
   0.36756288  0.86756296  0.86756296
   0.13243720  0.63243729  0.86756296
   0.86756296  0.36756288  0.86756296
   0.63243729  0.13243720  0.86756296
   0.86756296  0.13243720  0.63243729
   0.36756288  0.63243729  0.63243729
   0.63243729  0.36756288  0.63243729
   0.13243720  0.86756296  0.63243729
   0.11756284  0.38243724  0.61756292
   0.88243733  0.61756292  0.61756292
   0.61756292  0.88243733  0.61756292
   0.38243724  0.11756284  0.61756292
   0.38243724  0.88243733  0.38243724
   0.61756292  0.11756284  0.38243724
   0.88243733  0.38243724  0.38243724
   0.11756284  0.61756292  0.38243724
   0.63243729  0.63243729  0.36756288
   0.13243720  0.13243720  0.36756288
   0.36756288  0.36756288  0.36756288
   0.86756296  0.86756296  0.36756288
   0.13243720  0.36756288  0.13243720
   0.36756288  0.13243720  0.13243720
   0.63243729  0.86756296  0.13243720
   0.86756296  0.63243729  0.13243720
   0.88243733  0.11756284  0.11756284
   0.11756284  0.88243733  0.11756284
   0.38243724  0.61756292  0.11756284
   0.61756292  0.38243724  0.11756284
 
 position of ions in cartesian coordinates  (Angst):
   0.97334555  6.81341896  6.81341896
   6.81341896  0.97334555  6.81341896
   4.86672777  2.92003666  6.81341896
   2.92003666  4.86672777  6.81341896
   5.84007333  5.84007333  5.84007333
   1.94669111  1.94669111  5.84007333
   4.86672777  0.97334555  4.86672777
   2.92003666  6.81341896  4.86672777
   0.97334555  4.86672777  4.86672777
   6.81341896  2.92003666  4.86672777
   0.00000000  0.00000000  3.89338222
   3.89338222  3.89338222  3.89338222
   6.81341896  4.86672777  2.92003666
   0.97334555  2.92003666  2.92003666
   2.92003666  0.97334555  2.92003666
   4.86672777  6.81341896  2.92003666
   1.94669111  5.84007333  1.94669111
   5.84007333  1.94669111  1.94669111
   0.97334555  0.97334555  0.97334555
   2.92003666  2.92003666  0.97334555
   4.86672777  4.86672777  0.97334555
   6.81341896  6.81341896  0.97334555
   3.89338222  0.00000000  0.00000000
   0.00000000  3.89338222  0.00000000
   6.87133051  6.87133051  6.87133051
   4.80881622  4.80881622  6.87133051
   2.97794822  2.97794822  6.87133051
   0.91543400  0.91543400  6.87133051
   2.86212511  6.75550733  6.75550733
   1.03125711  4.92463940  6.75550733
   6.75550733  2.86212511  6.75550733
   4.92463940  1.03125711  6.75550733
   6.75550733  1.03125711  4.92463940
   2.86212511  4.92463940  4.92463940
   4.92463940  2.86212511  4.92463940
   1.03125711  6.75550733  4.92463940
   0.91543400  2.97794822  4.80881622
   6.87133051  4.80881622  4.80881622
   4.80881622  6.87133051  4.80881622
   2.97794822  0.91543400  4.80881622
   2.97794822  6.87133051  2.97794822
   4.80881622  0.91543400  2.97794822
   6.87133051  2.97794822  2.97794822
   0.91543400  4.80881622  2.97794822
   4.92463940  4.92463940  2.86212511
   1.03125711  1.03125711  2.86212511
   2.86212511  2.86212511  2.86212511
   6.75550733  6.75550733  2.86212511
   1.03125711  2.86212511  1.03125711
   2.86212511  1.03125711  1.03125711
   4.92463940  6.75550733  1.03125711
   6.75550733  4.92463940  1.03125711
   6.87133051  0.91543400  0.91543400
   0.91543400  6.87133051  0.91543400
   2.97794822  4.80881622  0.91543400
   4.80881622  2.97794822  0.91543400
 


--------------------------------------------------------------------------------------------------------


 k-point  1 :   0.0000 0.0000 0.0000  plane waves:   11981
 k-point  2 :   0.3333 0.0000 0.0000  plane waves:   11976
 k-point  3 :   0.3333 0.3333 0.0000  plane waves:   12026
 k-point  4 :   0.3333 0.3333 0.3333  plane waves:   12001

 maximum and minimum number of plane-waves per node :     12026    11976

 maximum number of plane-waves:     12026
 maximum index in each direction: 
   IXMAX=   14   IYMAX=   14   IZMAX=   14
   IXMIN=  -14   IYMIN=  -14   IZMIN=  -14

 NGX is ok and might be reduce to  58
 NGY is ok and might be reduce to  58
 NGZ is ok and might be reduce to  58

 serial   3D FFT for wavefunctions
 parallel 3D FFT for charge:
    minimum data exchange during FFTs selected (reduces bandwidth)


 total amount of memory used by VASP on root node    87135. kBytes
========================================================================

   base      :      30000. kBytes
   nonl-proj :      16941. kBytes
   fftplans  :      16810. kBytes
   grid      :      15225. kBytes
   one-center:        172. kBytes
   wavefun   :       7987. kBytes
 
     INWAV:  cpu time    0.0000: real time    0.0000
 Broyden mixing: mesh for mixing (old mesh)
   NGX = 29   NGY = 29   NGZ = 29
  (NGX  =120   NGY  =120   NGZ  =120)
  gives a total of  24389 points

 initial charge density was supplied:
 charge density of overlapping atoms calculated
 number of electron     256.0000000 magnetization 
 keeping initial charge density in first step


--------------------------------------------------------------------------------------------------------


 Maximum index for augmentation-charges         7668 (set IRDMAX)


--------------------------------------------------------------------------------------------------------


 First call to EWALD:  gamma=   0.228
 Maximum number of real-space cells 3x 3x 3
 Maximum number of reciprocal cells 3x 3x 3

 FEWALD executed in parallel
    FEWALD:  cpu time    0.0033: real time    0.0032


----------------------------------------- Iteration    1(   1)  ---------------------------------------


    POTLOK:  cpu time    0.0949: real time    0.0949
    SETDIJ:  cpu time    0.1128: real time    0.1128
     EDDAV:  cpu time    3.5009: real time    3.5000
       DOS:  cpu time    0.0003: real time    0.0004
    --------------------------------------------
      LOOP:  cpu time    3.7104: real time    3.7160

 eigenvalue-minimisations  :  1280
 total energy-change (2. order) : 0.1118446E+04  (-0.1283943E+05)
 number of electron     256.0000000 magnetization 
 augmentation part      256.0000000 magnetization 

 Free energy of the ion-electron system (eV)
  ---------------------------------------------------
  alpha Z        PSCENC =       482.99658975
  Ewald energy   TEWEN  =    -11364.45623007
  -Hartree energ DENC   =     -1532.59692421
  -exchange      EXHF   =         0.00000000
  -V(xc)+E(xc)   XCENC  =       458.74847815
  PAW double counting   =      4376.96732092    -3998.87981828
  entropy T*S    EENTRO =        -0.00121746
  eigenvalues    EBANDS =      1756.96240209
  atomic energy  EATOM  =     10938.70534400
  Solvation  Ediel_sol  =         0.00000000
  ---------------------------------------------------
  free energy    TOTEN  =      1118.44594490 eV

  energy without entropy =     1118.44716235  energy(sigma->0) =     1118.44655363


--------------------------------------------------------------------------------------------------------




----------------------------------------- Iteration    1(   2)  ---------------------------------------


     EDDAV:  cpu time    4.2743: real time    4.2730
       DOS:  cpu time    0.0002: real time    0.0002
    --------------------------------------------
      LOOP:  cpu time    4.2749: real time    4.2803

 eigenvalue-minimisations  :  1664
 total energy-change (2. order) :-0.1538879E+04  (-0.1484281E+04)
 number of electron     256.0000000 magnetization 
 augmentation part      256.0000000 magnetization 

 Free energy of the ion-electron system (eV)
  ---------------------------------------------------
  alpha Z        PSCENC =       482.99658975
  Ewald energy   TEWEN  =    -11364.45623007
  -Hartree energ DENC   =     -1532.59692421
  -exchange      EXHF   =         0.00000000
  -V(xc)+E(xc)   XCENC  =       458.74847815
  PAW double counting   =      4376.96732092    -3998.87981828
  entropy T*S    EENTRO =         0.00000000
  eigenvalues    EBANDS =       218.08211699
  atomic energy  EATOM  =     10938.70534400
  Solvation  Ediel_sol  =         0.00000000
  ---------------------------------------------------
  free energy    TOTEN  =      -420.43312275 eV

  energy without entropy =     -420.43312275  energy(sigma->0) =     -420.43312275


--------------------------------------------------------------------------------------------------------




----------------------------------------- Iteration    1(   3)  ---------------------------------------


     EDDAV:  cpu time    4.0168: real time    4.0156
       DOS:  cpu time    0.0002: real time    0.0002
    --------------------------------------------
      LOOP:  cpu time    4.0174: real time    4.0239

 eigenvalue-minimisations  :  1536
 total energy-change (2. order) :-0.8011518E+02  (-0.7958435E+02)
 number of electron     256.0000000 magnetization 
 augmentation part      256.0000000 magnetization 

 Free energy of the ion-electron system (eV)
  ---------------------------------------------------
  alpha Z        PSCENC =       482.99658975
  Ewald energy   TEWEN  =    -11364.45623007
  -Hartree energ DENC   =     -1532.59692421
  -exchange      EXHF   =         0.00000000
  -V(xc)+E(xc)   XCENC  =       458.74847815
  PAW double counting   =      4376.96732092    -3998.87981828
  entropy T*S    EENTRO =         0.00000000
  eigenvalues    EBANDS =       137.96693987
  atomic energy  EATOM  =     10938.70534400
  Solvation  Ediel_sol  =         0.00000000
  ---------------------------------------------------
  free energy    TOTEN  =      -500.54829987 eV

  energy without entropy =     -500.54829987  energy(sigma->0) =     -500.54829987


--------------------------------------------------------------------------------------------------------




----------------------------------------- Iteration    1(   4)  ---------------------------------------


     EDDAV:  cpu time    4.0743: real time    4.0731
       DOS:  cpu time    0.0002: real time    0.0002
    --------------------------------------------
      LOOP:  cpu time    4.0749: real time    4.0815

 eigenvalue-minimisations  :  1568
 total energy-change (2. order) :-0.1243738E+01  (-0.1238687E+01)
 number of electron     256.0000000 magnetization 
 augmentation part      256.0000000 magnetization 

 Free energy of the ion-electron system (eV)
  ---------------------------------------------------
  alpha Z        PSCENC =       482.99658975
  Ewald energy   TEWEN  =    -11364.45623007
  -Hartree energ DENC   =     -1532.59692421
  -exchange      EXHF   =         0.00000000
  -V(xc)+E(xc)   XCENC  =       458.74847815
  PAW double counting   =      4376.96732092    -3998.87981828
  entropy T*S    EENTRO =         0.00000000
  eigenvalues    EBANDS =       136.72320166
  atomic energy  EATOM  =     10938.70534400
  Solvation  Ediel_sol  =         0.00000000
  ---------------------------------------------------
  free energy    TOTEN  =      -501.79203808 eV

  energy without entropy =     -501.79203808  energy(sigma->0) =     -501.79203808


--------------------------------------------------------------------------------------------------------




----------------------------------------- Iteration    1(   5)  ---------------------------------------


     EDDAV:  cpu time    3.9172: real time    3.9161
       DOS:  cpu time    0.0002: real time    0.0002
    CHARGE:  cpu time    0.3407: real time    0.3407
    MIXING:  cpu time    0.0023: real time    0.0024
    --------------------------------------------
      LOOP:  cpu time    4.2609: real time    4.2676

 eigenvalue-minimisations  :  1488
 total energy-change (2. order) :-0.2739020E-01  (-0.2731851E-01)
 number of electron     255.9999999 magnetization 
 augmentation part        6.5181881 magnetization 

 Broyden mixing:
  rms(total) = 0.40692E+01    rms(broyden)= 0.40683E+01
  rms(prec ) = 0.62668E+01
  weight for this iteration     100.00

 Free energy of the ion-electron system (eV)
  ---------------------------------------------------
  alpha Z        PSCENC =       482.99658975
  Ewald energy   TEWEN  =    -11364.45623007
  -Hartree energ DENC   =     -1532.59692421
  -exchange      EXHF   =         0.00000000
  -V(xc)+E(xc)   XCENC  =       458.74847815
  PAW double counting   =      4376.96732092    -3998.87981828
  entropy T*S    EENTRO =         0.00000000
  eigenvalues    EBANDS =       136.69581146
  atomic energy  EATOM  =     10938.70534400
  Solvation  Ediel_sol  =         0.00000000
  ---------------------------------------------------
  free energy    TOTEN  =      -501.81942828 eV

  energy without entropy =     -501.81942828  energy(sigma->0) =     -501.81942828


--------------------------------------------------------------------------------------------------------




----------------------------------------- Iteration    1(   6)  ---------------------------------------


    POTLOK:  cpu time    0.0892: real time    0.0893
    SETDIJ:  cpu time    0.1124: real time    0.1124
     EDDAV:  cpu time    3.8286: real time    3.8316
       DOS:  cpu time    0.0002: real time    0.0002
    CHARGE:  cpu time    0.3363: real time    0.3362
    MIXING:  cpu time    0.0022: real time    0.0022
    --------------------------------------------
      LOOP:  cpu time    4.3695: real time    4.3801

 eigenvalue-minimisations  :  1456
 total energy-change (2. order) : 0.5151926E+02  (-0.1997766E+02)
 number of electron     255.9999999 magnetization 
 augmentation part        3.3697743 magnetization 

 Broyden mixing:
  rms(total) = 0.11215E+01    rms(broyden)= 0.11210E+01
  rms(prec ) = 0.15157E+01
  weight for this iteration     100.00

 eigenvalues of (default mixing * dielectric matrix)
  average eigenvalue GAMMA=   1.0511
  1.0511

 Free energy of the ion-electron system (eV)
  ---------------------------------------------------
  alpha Z        PSCENC =       482.99658975
  Ewald energy   TEWEN  =    -11364.45623007
  -Hartree energ DENC   =     -1892.03673508
  -exchange      EXHF   =         0.00000000
  -V(xc)+E(xc)   XCENC  =       486.69222679
  PAW double counting   =      5481.81185619    -5108.24540064
  entropy T*S    EENTRO =         0.00000000
  eigenvalues    EBANDS =       524.23217709
  atomic energy  EATOM  =     10938.70534400
  Solvation  Ediel_sol  =         0.00000000
  ---------------------------------------------------
  free energy    TOTEN  =      -450.30017197 eV

  energy without entropy =     -450.30017197  energy(sigma->0) =     -450.30017197


--------------------------------------------------------------------------------------------------------




----------------------------------------- Iteration    1(   7)  ---------------------------------------


    POTLOK:  cpu time    0.0887: real time    0.0887
    SETDIJ:  cpu time    0.1126: real time    0.1126
     EDDAV:  cpu time    4.1782: real time    4.1811
       DOS:  cpu time    0.0002: real time    0.0002
    CHARGE:  cpu time    0.3333: real time    0.3360
    MIXING:  cpu time    0.0024: real time    0.0024
    --------------------------------------------
      LOOP:  cpu time    4.7158: real time    4.7296

 eigenvalue-minimisations  :  1632
 total energy-change (2. order) : 0.2873388E+00  (-0.8861821E+00)
 number of electron     255.9999999 magnetization 
 augmentation part        2.9301935 magnetization 

 Broyden mixing:
  rms(total) = 0.70923E+00    rms(broyden)= 0.70917E+00
  rms(prec ) = 0.88413E+00
  weight for this iteration     100.00

 eigenvalues of (default mixing * dielectric matrix)
  average eigenvalue GAMMA=   1.8399
  1.1405  2.5394

 Free energy of the ion-electron system (eV)
  ---------------------------------------------------
  alpha Z        PSCENC =       482.99658975
  Ewald energy   TEWEN  =    -11364.45623007
  -Hartree energ DENC   =     -1950.04653897
  -exchange      EXHF   =         0.00000000
  -V(xc)+E(xc)   XCENC  =       491.96316635
  PAW double counting   =      5798.51926934    -5426.54873087
  entropy T*S    EENTRO =         0.00000000
  eigenvalues    EBANDS =       578.85429730
  atomic energy  EATOM  =     10938.70534400
  Solvation  Ediel_sol  =         0.00000000
  ---------------------------------------------------
  free energy    TOTEN  =      -450.01283317 eV

  energy without entropy =     -450.01283317  energy(sigma->0) =     -450.01283317


--------------------------------------------------------------------------------------------------------




----------------------------------------- Iteration    1(   8)  ---------------------------------------


    POTLOK:  cpu time    0.0896: real time    0.0896
    SETDIJ:  cpu time    0.1124: real time    0.1124
     EDDAV:  cpu time    3.8811: real time    3.8802
       DOS:  cpu time    0.0002: real time    0.0002
    CHARGE:  cpu time    0.3372: real time    0.3371
    MIXING:  cpu time    0.0026: real time    0.0026
    --------------------------------------------
      LOOP:  cpu time    4.4237: real time    4.4310

 eigenvalue-minimisations  :  1472
 total energy-change (2. order) : 0.3311390E-01  (-0.7812611E-01)
 number of electron     255.9999999 magnetization 
 augmentation part        3.0663342 magnetization 

 Broyden mixing:
  rms(total) = 0.11632E+00    rms(broyden)= 0.11631E+00
  rms(prec ) = 0.17574E+00
  weight for this iteration     100.00

 eigenvalues of (default mixing * dielectric matrix)
  average eigenvalue GAMMA=   1.5732
  2.5765  1.0715  1.0715

 Free energy of the ion-electron system (eV)
  ---------------------------------------------------
  alpha Z        PSCENC =       482.99658975
  Ewald energy   TEWEN  =    -11364.45623007
  -Hartree energ DENC   =     -1964.33507496
  -exchange      EXHF   =         0.00000000
  -V(xc)+E(xc)   XCENC  =       494.46600847
  PAW double counting   =      6082.30716441    -5712.35703631
  entropy T*S    EENTRO =         0.00000000
  eigenvalues    EBANDS =       592.69351545
  atomic energy  EATOM  =     10938.70534400
  Solvation  Ediel_sol  =         0.00000000
  ---------------------------------------------------
  free energy    TOTEN  =      -449.97971927 eV

  energy without entropy =     -449.97971927  energy(sigma->0) =     -449.97971927


--------------------------------------------------------------------------------------------------------




----------------------------------------- Iteration    1(   9)  ---------------------------------------


    POTLOK:  cpu time    0.0901: real time    0.0901
    SETDIJ:  cpu time    0.1125: real time    0.1124
     EDDAV:  cpu time    3.9630: real time    3.9623
       DOS:  cpu time    0.0002: real time    0.0002
    CHARGE:  cpu time    0.3380: real time    0.3379
    MIXING:  cpu time    0.0025: real time    0.0025
    --------------------------------------------
      LOOP:  cpu time    4.5068: real time    4.5224

 eigenvalue-minimisations  :  1520
 total energy-change (2. order) : 0.3321878E-01  (-0.2504919E-01)
 number of electron     255.9999999 magnetization 
 augmentation part        2.9613666 magnetization 

 Broyden mixing:
  rms(total) = 0.25336E-01    rms(broyden)= 0.25302E-01
  rms(prec ) = 0.31567E-01
  weight for this iteration     100.00

 eigenvalues of (default mixing * dielectric matrix)
  average eigenvalue GAMMA=   1.5660
  2.5474  1.0354  1.0354  1.6459

 Free energy of the ion-electron system (eV)
  ---------------------------------------------------
  alpha Z        PSCENC =       482.99658975
  Ewald energy   TEWEN  =    -11364.45623007
  -Hartree energ DENC   =     -1977.39456583
  -exchange      EXHF   =         0.00000000
  -V(xc)+E(xc)   XCENC  =       495.51373333
  PAW double counting   =      6111.85642717    -5741.97378046
  entropy T*S    EENTRO =         0.00000000
  eigenvalues    EBANDS =       604.80598162
  atomic energy  EATOM  =     10938.70534400
  Solvation  Ediel_sol  =         0.00000000
  ---------------------------------------------------
  free energy    TOTEN  =      -449.94650049 eV

  energy without entropy =     -449.94650049  energy(sigma->0) =     -449.94650049


--------------------------------------------------------------------------------------------------------




----------------------------------------- Iteration    1(  10)  ---------------------------------------


    POTLOK:  cpu time    0.0890: real time    0.0890
    SETDIJ:  cpu time    0.1116: real time    0.1116
     EDDAV:  cpu time    3.8598: real time    3.8629
       DOS:  cpu time    0.0002: real time    0.0002
    CHARGE:  cpu time    0.3350: real time    0.3349
    MIXING:  cpu time    0.0025: real time    0.0025
    --------------------------------------------
      LOOP:  cpu time    4.4027: real time    4.4096

 eigenvalue-minimisations  :  1472
 total energy-change (2. order) :-0.1333866E-02  (-0.6935479E-03)
 number of electron     255.9999999 magnetization 
 augmentation part        2.9643444 magnetization 

 Broyden mixing:
  rms(total) = 0.13103E-01    rms(broyden)= 0.13102E-01
  rms(prec ) = 0.16768E-01
  weight for this iteration     100.00

 eigenvalues of (default mixing * dielectric matrix)
  average eigenvalue GAMMA=   1.6215
  2.6788  2.3295  1.0648  1.0648  0.9698

 Free energy of the ion-electron system (eV)
  ---------------------------------------------------
  alpha Z        PSCENC =       482.99658975
  Ewald energy   TEWEN  =    -11364.45623007
  -Hartree energ DENC   =     -1976.93694779
  -exchange      EXHF   =         0.00000000
  -V(xc)+E(xc)   XCENC  =       495.49067739
  PAW double counting   =      6102.68602158    -5732.74227153
  entropy T*S    EENTRO =         0.00000000
  eigenvalues    EBANDS =       604.30898231
  atomic energy  EATOM  =     10938.70534400
  Solvation  Ediel_sol  =         0.00000000
  ---------------------------------------------------
  free energy    TOTEN  =      -449.94783436 eV

  energy without entropy =     -449.94783436  energy(sigma->0) =     -449.94783436


--------------------------------------------------------------------------------------------------------




----------------------------------------- Iteration    1(  11)  ---------------------------------------


    POTLOK:  cpu time    0.0892: real time    0.0892
    SETDIJ:  cpu time    0.1123: real time    0.1123
     EDDAV:  cpu time    3.7718: real time    3.7710
       DOS:  cpu time    0.0002: real time    0.0002
    CHARGE:  cpu time    0.3361: real time    0.3360
    MIXING:  cpu time    0.0025: real time    0.0025
    --------------------------------------------
      LOOP:  cpu time    4.3127: real time    4.3202

 eigenvalue-minimisations  :  1424
 total energy-change (2. order) :-0.5178409E-03  (-0.2105244E-03)
 number of electron     255.9999999 magnetization 
 augmentation part        2.9725518 magnetization 

 Broyden mixing:
  rms(total) = 0.48691E-02    rms(broyden)= 0.48684E-02
  rms(prec ) = 0.67016E-02
  weight for this iteration     100.00

 eigenvalues of (default mixing * dielectric matrix)
  average eigenvalue GAMMA=   1.6248
  2.5519  2.5519  1.4548  1.0737  1.0737  1.0432

 Free energy of the ion-electron system (eV)
  ---------------------------------------------------
  alpha Z        PSCENC =       482.99658975
  Ewald energy   TEWEN  =    -11364.45623007
  -Hartree energ DENC   =     -1976.39676810
  -exchange      EXHF   =         0.00000000
  -V(xc)+E(xc)   XCENC  =       495.45418715
  PAW double counting   =      6095.74000336    -5725.76468434
  entropy T*S    EENTRO =         0.00000000
  eigenvalues    EBANDS =       603.77320606
  atomic energy  EATOM  =     10938.70534400
  Solvation  Ediel_sol  =         0.00000000
  ---------------------------------------------------
  free energy    TOTEN  =      -449.94835220 eV

  energy without entropy =     -449.94835220  energy(sigma->0) =     -449.94835220


--------------------------------------------------------------------------------------------------------




----------------------------------------- Iteration    1(  12)  ---------------------------------------


    POTLOK:  cpu time    0.0892: real time    0.0892
    SETDIJ:  cpu time    0.1109: real time    0.1109
     EDDAV:  cpu time    3.9729: real time    3.9720
       DOS:  cpu time    0.0002: real time    0.0002
    CHARGE:  cpu time    0.3349: real time    0.3348
    MIXING:  cpu time    0.0027: real time    0.0027
    --------------------------------------------
      LOOP:  cpu time    4.5114: real time    4.5181

 eigenvalue-minimisations  :  1520
 total energy-change (2. order) : 0.1333543E-04  (-0.4107231E-04)
 number of electron     255.9999999 magnetization 
 augmentation part        2.9685719 magnetization 

 Broyden mixing:
  rms(total) = 0.16613E-02    rms(broyden)= 0.16607E-02
  rms(prec ) = 0.22482E-02
  weight for this iteration     100.00

 eigenvalues of (default mixing * dielectric matrix)
  average eigenvalue GAMMA=   1.6659
  2.8116  2.5895  0.9566  1.0537  1.0537  1.5982  1.5982

 Free energy of the ion-electron system (eV)
  ---------------------------------------------------
  alpha Z        PSCENC =       482.99658975
  Ewald energy   TEWEN  =    -11364.45623007
  -Hartree energ DENC   =     -1976.89576085
  -exchange      EXHF   =         0.00000000
  -V(xc)+E(xc)   XCENC  =       495.48566192
  PAW double counting   =      6095.06058103    -5725.07782253
  entropy T*S    EENTRO =         0.00000000
  eigenvalues    EBANDS =       604.23329789
  atomic energy  EATOM  =     10938.70534400
  Solvation  Ediel_sol  =         0.00000000
  ---------------------------------------------------
  free energy    TOTEN  =      -449.94833886 eV

  energy without entropy =     -449.94833886  energy(sigma->0) =     -449.94833886


--------------------------------------------------------------------------------------------------------




----------------------------------------- Iteration    1(  13)  ---------------------------------------


    POTLOK:  cpu time    0.0904: real time    0.0904
    SETDIJ:  cpu time    0.1111: real time    0.1111
     EDDAV:  cpu time    3.9375: real time    3.9367
       DOS:  cpu time    0.0002: real time    0.0002
    CHARGE:  cpu time    0.3356: real time    0.3355
    MIXING:  cpu time    0.0027: real time    0.0027
    --------------------------------------------
      LOOP:  cpu time    4.4780: real time    4.4851

 eigenvalue-minimisations  :  1504
 total energy-change (2. order) :-0.2474519E-05  (-0.2664836E-05)
 number of electron     255.9999999 magnetization 
 augmentation part        2.9692431 magnetization 

 Broyden mixing:
  rms(total) = 0.46008E-03    rms(broyden)= 0.45998E-03
  rms(prec ) = 0.65408E-03
  weight for this iteration     100.00

 eigenvalues of (default mixing * dielectric matrix)
  average eigenvalue GAMMA=   1.6165
  2.8683  2.5395  2.0701  0.9517  1.1879  1.1879  1.0631  1.0631

 Free energy of the ion-electron system (eV)
  ---------------------------------------------------
  alpha Z        PSCENC =       482.99658975
  Ewald energy   TEWEN  =    -11364.45623007
  -Hartree energ DENC   =     -1976.82708798
  -exchange      EXHF   =         0.00000000
  -V(xc)+E(xc)   XCENC  =       495.48143778
  PAW double counting   =      6094.67966178    -5724.69468725
  entropy T*S    EENTRO =         0.00000000
  eigenvalues    EBANDS =       604.16663067
  atomic energy  EATOM  =     10938.70534400
  Solvation  Ediel_sol  =         0.00000000
  ---------------------------------------------------
  free energy    TOTEN  =      -449.94834134 eV

  energy without entropy =     -449.94834134  energy(sigma->0) =     -449.94834134


--------------------------------------------------------------------------------------------------------




----------------------------------------- Iteration    1(  14)  ---------------------------------------


    POTLOK:  cpu time    0.0887: real time    0.0887
    SETDIJ:  cpu time    0.1126: real time    0.1127
     EDDAV:  cpu time    3.8679: real time    3.8672
       DOS:  cpu time    0.0002: real time    0.0002
    CHARGE:  cpu time    0.3382: real time    0.3382
    MIXING:  cpu time    0.0029: real time    0.0029
    --------------------------------------------
      LOOP:  cpu time    4.4112: real time    4.4188

 eigenvalue-minimisations  :  1472
 total energy-change (2. order) :-0.5949132E-06  (-0.2532564E-06)
 number of electron     255.9999999 magnetization 
 augmentation part        2.9695282 magnetization 

 Broyden mixing:
  rms(total) = 0.11994E-03    rms(broyden)= 0.11953E-03
  rms(prec ) = 0.16254E-03
  weight for this iteration     100.00

 eigenvalues of (default mixing * dielectric matrix)
  average eigenvalue GAMMA=   1.7100
  3.0008  2.5011  2.4022  2.0966  1.3421  1.0649  1.0649  0.9882  0.9293

 Free energy of the ion-electron system (eV)
  ---------------------------------------------------
  alpha Z        PSCENC =       482.99658975
  Ewald energy   TEWEN  =    -11364.45623007
  -Hartree energ DENC   =     -1976.81511786
  -exchange      EXHF   =         0.00000000
  -V(xc)+E(xc)   XCENC  =       495.48028943
  PAW double counting   =      6094.74989452    -5724.76590734
  entropy T*S    EENTRO =         0.00000000
  eigenvalues    EBANDS =       604.15679566
  atomic energy  EATOM  =     10938.70534400
  Solvation  Ediel_sol  =         0.00000000
  ---------------------------------------------------
  free energy    TOTEN  =      -449.94834193 eV

  energy without entropy =     -449.94834193  energy(sigma->0) =     -449.94834193


--------------------------------------------------------------------------------------------------------




----------------------------------------- Iteration    1(  15)  ---------------------------------------


    POTLOK:  cpu time    0.0903: real time    0.1030
    SETDIJ:  cpu time    0.1115: real time    0.1115
     EDDAV:  cpu time    4.0348: real time    4.0336
       DOS:  cpu time    0.0002: real time    0.0002
    CHARGE:  cpu time    0.3372: real time    0.3371
    MIXING:  cpu time    0.0034: real time    0.0034
    --------------------------------------------
      LOOP:  cpu time    4.5780: real time    4.6075

 eigenvalue-minimisations  :  1552
 total energy-change (2. order) :-0.8281859E-07  (-0.2680381E-07)
 number of electron     255.9999999 magnetization 
 augmentation part        2.9695704 magnetization 

 Broyden mixing:
  rms(total) = 0.27544E-04    rms(broyden)= 0.26027E-04
  rms(prec ) = 0.39549E-04
  weight for this iteration     100.00

 eigenvalues of (default mixing * dielectric matrix)
  average eigenvalue GAMMA=   1.6401
  2.9929  2.5985  2.2240  2.2240  1.0656  1.0656  1.1974  1.1974  0.9799  0.8562

 Free energy of the ion-electron system (eV)
  ---------------------------------------------------
  alpha Z        PSCENC =       482.99658975
  Ewald energy   TEWEN  =    -11364.45623007
  -Hartree energ DENC   =     -1976.81357809
  -exchange      EXHF   =         0.00000000
  -V(xc)+E(xc)   XCENC  =       495.47996173
  PAW double counting   =      6094.79837594    -5724.81496859
  entropy T*S    EENTRO =         0.00000000
  eigenvalues    EBANDS =       604.15616332
  atomic energy  EATOM  =     10938.70534400
  Solvation  Ediel_sol  =         0.00000000
  ---------------------------------------------------
  free energy    TOTEN  =      -449.94834202 eV

  energy without entropy =     -449.94834202  energy(sigma->0) =     -449.94834202


--------------------------------------------------------------------------------------------------------




----------------------------------------- Iteration    1(  16)  ---------------------------------------


    POTLOK:  cpu time    0.0890: real time    0.0890
    SETDIJ:  cpu time    0.1119: real time    0.1119
     EDDAV:  cpu time    3.2110: real time    3.2102
       DOS:  cpu time    0.0002: real time    0.0002
    CHARGE:  cpu time    0.3351: real time    0.3349
    MIXING:  cpu time    0.0028: real time    0.0028
    --------------------------------------------
      LOOP:  cpu time    3.7506: real time    3.7579

 eigenvalue-minimisations  :  1120
 total energy-change (2. order) :-0.4723915E-07  (-0.2525594E-08)
 number of electron     255.9999999 magnetization 
 augmentation part        2.9695964 magnetization 

 Broyden mixing:
  rms(total) = 0.17157E-04    rms(broyden)= 0.14713E-04
  rms(prec ) = 0.20212E-04
  weight for this iteration     100.00
  WARNING: grid for Broyden might be to small

 eigenvalues of (default mixing * dielectric matrix)
  average eigenvalue GAMMA=   1.6644
  3.0733  2.7089  2.5027  1.8161  1.8161  1.3142  1.0668  1.0668  1.0431  0.9707
  0.9300

 Free energy of the ion-electron system (eV)
  ---------------------------------------------------
  alpha Z        PSCENC =       482.99658975
  Ewald energy   TEWEN  =    -11364.45623007
  -Hartree energ DENC   =     -1976.81054247
  -exchange      EXHF   =         0.00000000
  -V(xc)+E(xc)   XCENC  =       495.47974801
  PAW double counting   =      6094.79079654    -5724.80732333
  entropy T*S    EENTRO =         0.00000000
  eigenvalues    EBANDS =       604.15327552
  atomic energy  EATOM  =     10938.70534400
  Solvation  Ediel_sol  =         0.00000000
  ---------------------------------------------------
  free energy    TOTEN  =      -449.94834206 eV

  energy without entropy =     -449.94834206  energy(sigma->0) =     -449.94834206


--------------------------------------------------------------------------------------------------------




----------------------------------------- Iteration    1(  17)  ---------------------------------------


    POTLOK:  cpu time    0.0930: real time    0.0930
    SETDIJ:  cpu time    0.1118: real time    0.1118
     EDDAV:  cpu time    2.6485: real time    2.6477
       DOS:  cpu time    0.0002: real time    0.0002
    CHARGE:  cpu time    0.3344: real time    0.3343
    MIXING:  cpu time    0.0029: real time    0.0029
    --------------------------------------------
      LOOP:  cpu time    3.1914: real time    3.2255

 eigenvalue-minimisations  :   832
 total energy-change (2. order) :-0.4654430E-07  (-0.2668387E-09)
 number of electron     255.9999999 magnetization 
 augmentation part        2.9695911 magnetization 

 Broyden mixing:
  rms(total) = 0.10200E-04    rms(broyden)= 0.51536E-05
  rms(prec ) = 0.65557E-05
  weight for this iteration     100.00
  WARNING: grid for Broyden might be to small

 eigenvalues of (default mixing * dielectric matrix)
  average eigenvalue GAMMA=   1.6489
  2.9772  2.7105  2.3839  2.1783  2.1783  1.3172  1.0693  1.0693  1.0191  1.0191
  0.8981  0.9667

 Free energy of the ion-electron system (eV)
  ---------------------------------------------------
  alpha Z        PSCENC =       482.99658975
  Ewald energy   TEWEN  =    -11364.45623007
  -Hartree energ DENC   =     -1976.81156457
  -exchange      EXHF   =         0.00000000
  -V(xc)+E(xc)   XCENC  =       495.47983233
  PAW double counting   =      6094.79700326    -5724.81351560
  entropy T*S    EENTRO =         0.00000000
  eigenvalues    EBANDS =       604.15419879
  atomic energy  EATOM  =     10938.70534400
  Solvation  Ediel_sol  =         0.00000000
  ---------------------------------------------------
  free energy    TOTEN  =      -449.94834211 eV

  energy without entropy =     -449.94834211  energy(sigma->0) =     -449.94834211


--------------------------------------------------------------------------------------------------------




----------------------------------------- Iteration    1(  18)  ---------------------------------------


    POTLOK:  cpu time    0.0889: real time    0.0889
    SETDIJ:  cpu time    0.1119: real time    0.1118
     EDDAV:  cpu time    2.6477: real time    2.6469
       DOS:  cpu time    0.0002: real time    0.0002
    --------------------------------------------
      LOOP:  cpu time    2.8492: real time    2.8564

 eigenvalue-minimisations  :   832
 total energy-change (2. order) :-0.5231414E-08  (-0.1016934E-10)
 number of electron     255.9999999 magnetization 
 augmentation part        2.9695911 magnetization 

 Free energy of the ion-electron system (eV)
  ---------------------------------------------------
  alpha Z        PSCENC =       482.99658975
  Ewald energy   TEWEN  =    -11364.45623007
  -Hartree energ DENC   =     -1976.81159529
  -exchange      EXHF   =         0.00000000
  -V(xc)+E(xc)   XCENC  =       495.47984265
  PAW double counting   =      6094.79548154    -5724.81196328
  entropy T*S    EENTRO =         0.00000000
  eigenvalues    EBANDS =       604.15418860
  atomic energy  EATOM  =     10938.70534400
  Solvation  Ediel_sol  =         0.00000000
  ---------------------------------------------------
  free energy    TOTEN  =      -449.94834211 eV

  energy without entropy =     -449.94834211  energy(sigma->0) =     -449.94834211


--------------------------------------------------------------------------------------------------------




 average (electrostatic) potential at core
  the test charge radii are     0.9892  0.7089
  (the norm of the test charge is              1.0000)
       1 -79.4267       2 -79.4267       3 -79.4265       4 -79.4265       5 -79.7648
       6 -79.7648       7 -79.4265       8 -79.4265       9 -79.4265      10 -79.4265
      11 -79.7650      12 -79.7648      13 -79.4265      14 -79.4265      15 -79.4265
      16 -79.4265      17 -79.7648      18 -79.7648      19 -79.4267      20 -79.4265
      21 -79.4265      22 -79.4267      23 -79.7650      24 -79.7650      25 -57.8833
      26 -57.8832      27 -57.8832      28 -57.8833      29 -57.8833      30 -57.8833
      31 -57.8833      32 -57.8833      33 -57.8833      34 -57.8832      35 -57.8832
      36 -57.8833      37 -57.8832      38 -57.8832      39 -57.8832      40 -57.8832
      41 -57.8832      42 -57.8832      43 -57.8832      44 -57.8832      45 -57.8832
      46 -57.8832      47 -57.8832      48 -57.8833      49 -57.8832      50 -57.8832
      51 -57.8833      52 -57.8833      53 -57.8833      54 -57.8833      55 -57.8832
      56 -57.8832
 
 
 
 E-fermi :   9.2042     XC(G=0): -12.2188     alpha+bet :-18.0823


 k-point     1 :       0.0000    0.0000    0.0000
  band No.  band energies     occupation 
      1      -9.6616      2.00000
      2      -8.0191      2.00000
      3      -8.0191      2.00000
      4      -8.0191      2.00000
      5      -8.0191      2.00000
      6      -8.0190      2.00000
      7      -8.0190      2.00000
      8      -6.3888      2.00000
      9      -6.1223      2.00000
     10      -6.1223      2.00000
     11      -6.1222      2.00000
     12      -6.1222      2.00000
     13      -6.1222      2.00000
     14      -6.1222      2.00000
     15      -5.9366      2.00000
     16      -5.9366      2.00000
     17      -5.9366      2.00000
     18      -5.9366      2.00000
     19      -5.9366      2.00000
     20      -5.9366      2.00000
     21      -5.4679      2.00000
     22      -5.4679      2.00000
     23      -5.4679      2.00000
     24      -4.5060      2.00000
     25      -4.5060      2.00000
     26      -4.5060      2.00000
     27      -4.2143      2.00000
     28      -4.2143      2.00000
     29      -4.2143      2.00000
     30      -4.2143      2.00000
     31      -4.2143      2.00000
     32      -4.2143      2.00000
     33      -1.3553      2.00000
     34      -0.3284      2.00000
     35       0.2407      2.00000
     36       0.2407      2.00000
     37       0.2407      2.00000
     38       1.6831      2.00000
     39       1.6831      2.00000
     40       1.6831      2.00000
     41       1.6831      2.00000
     42       1.6831      2.00000
     43       1.6832      2.00000
     44       1.9252      2.00000
     45       1.9252      2.00000
     46       2.1009      2.00000
     47       2.1009      2.00000
     48       2.1009      2.00000
     49       2.1009      2.00000
     50       2.1009      2.00000
     51       2.1009      2.00000
     52       2.4022      2.00000
     53       2.4022      2.00000
     54       2.4022      2.00000
     55       2.4023      2.00000
     56       2.4023      2.00000
     57       2.4023      2.00000
     58       3.7068      2.00000
     59       3.7068      2.00000
     60       3.7068      2.00000
     61       3.7068      2.00000
     62       3.7068      2.00000
     63       3.7068      2.00000
     64       4.4060      2.00000
     65       4.4060      2.00000
     66       4.4060      2.00000
     67       4.4060      2.00000
     68       4.4060      2.00000
     69       4.4060      2.00000
     70       4.6488      2.00000
     71       4.6488      2.00000
     72       4.6488      2.00000
     73       4.6488      2.00000
     74       4.6488      2.00000
     75       4.6488      2.00000
     76       4.9313      2.00000
     77       4.9313      2.00000
     78       4.9313      2.00000
     79       4.9966      2.00000
     80       4.9966      2.00000
     81       4.9966      2.00000
     82       4.9966      2.00000
     83       4.9966      2.00000
     84       4.9966      2.00000
     85       5.4689      2.00000
     86       5.4689      2.00000
     87       5.4689      2.00000
     88       5.4689      2.00000
     89       5.4689      2.00000
     90       5.4690      2.00000
     91       6.7810      2.00000
     92       6.7810      2.00000
     93       6.7810      2.00000
     94       7.2140      2.00000
     95       7.2140      2.00000
     96       7.2140      2.00000
     97       7.2140      2.00000
     98       7.2140      2.00000
     99       7.2140      2.00000
    100       7.2249      2.00000
    101       7.2249      2.00000
    102       7.2249      2.00000
    103       7.4419      2.00000
    104       7.4419      2.00000
    105       7.4419      2.00000
    106       7.4419      2.00000
    107       7.4419      2.00000
    108       7.4419      2.00000
    109       8.0034      2.00000
    110       8.0034      2.00000
    111       8.0034      2.00000
    112       8.0035      2.00000
    113       8.0035      2.00000
    114       8.0035      2.00000
    115       8.3285      2.00000
    116       8.3285      2.00000
    117       8.6797      2.00000
    118       8.6797      2.00000
    119       8.6797      2.00000
    120       8.6797      2.00000
    121       8.6797      2.00000
    122       8.6797      2.00000
    123       8.9488      2.00000
    124       8.9488      2.00000
    125       8.9488      2.00000
    126       9.0638      2.00000
    127       9.0638      2.00000
    128       9.0638      2.00000
    129      12.4382      0.00000
    130      12.4382      0.00000
    131      12.4382      0.00000
    132      13.9872      0.00000
    133      15.0687      0.00000
    134      15.7280      0.00000
    135      15.7280      0.00000
    136      15.7280      0.00000
    137      15.7280      0.00000
    138      15.7280      0.00000
    139      15.7280      0.00000
    140      15.9033      0.00000
    141      16.0471      0.00000
    142      16.0471      0.00000
    143      16.0471      0.00000
    144      16.0471      0.00000
    145      16.0471      0.00000
    146      16.0471      0.00000
    147      16.6091      0.00000
    148      16.6091      0.00000
    149      16.8373      0.00000
    150      16.8373      0.00000
    151      16.8373      0.00000
    152      16.8373      0.00000
    153      16.8373      0.00000
    154      16.8373      0.00000
    155      16.8862      0.00000
    156      16.8862      0.00000
    157      16.8862      0.00000
    158      18.0286      0.00000
    159      18.0324      0.00000
    160      18.0584      0.00000

 k-point     2 :       0.3333    0.0000    0.0000
  band No.  band energies     occupation 
      1      -9.4646      2.00000
      2      -8.8917      2.00000
      3      -7.9567      2.00000
      4      -7.9567      2.00000
      5      -7.9566      2.00000
      6      -7.9566      2.00000
      7      -7.0924      2.00000
      8      -6.6598      2.00000
      9      -6.6597      2.00000
     10      -6.6597      2.00000
     11      -6.6597      2.00000
     12      -6.5515      2.00000
     13      -5.9939      2.00000
     14      -5.8373      2.00000
     15      -5.8373      2.00000
     16      -5.8366      2.00000
     17      -5.6671      2.00000
     18      -5.6075      2.00000
     19      -5.6075      2.00000
     20      -5.1842      2.00000
     21      -5.1842      2.00000
     22      -5.1842      2.00000
     23      -5.1842      2.00000
     24      -5.0268      2.00000
     25      -4.4780      2.00000
[...]
      2.920037  6.813419  4.866728     0.102428   -0.120495    0.004334  
      0.973346  4.866728  4.866728     0.102428   -0.120495    0.004334  
      6.813419  2.920037  4.866728     0.102428   -0.120495    0.004334  
      0.000000  0.000000  3.893382     0.102433   -0.120501    0.004334  
      3.893382  3.893382  3.893382     0.102433   -0.120501    0.004334  
      6.813419  4.866728  2.920037     0.102426   -0.120493    0.004333  
      0.973346  2.920037  2.920037     0.102426   -0.120493    0.004335  
      2.920037  0.973346  2.920037     0.102426   -0.120493    0.004333  
      4.866728  6.813419  2.920037     0.102426   -0.120493    0.004335  
      1.946691  5.840073  1.946691     0.102433   -0.120501    0.004334  
      5.840073  1.946691  1.946691     0.102433   -0.120501    0.004334  
      0.973346  0.973346  0.973346     0.102428   -0.120495    0.004334  
      2.920037  2.920037  0.973346     0.102428   -0.120495    0.004334  
      4.866728  4.866728  0.973346     0.102428   -0.120495    0.004334  
      6.813419  6.813419  0.973346     0.102428   -0.120495    0.004334  
      3.893382  0.000000  0.000000     0.102433   -0.120501    0.004334  
      0.000000  3.893382  0.000000     0.102433   -0.120501    0.004334  
      6.871331  6.871331  6.871331     0.072317   -0.085074    0.003060  
      4.808816  4.808816  6.871331     0.072317   -0.085074    0.003061  
      2.977948  2.977948  6.871331     0.072317   -0.085074    0.003060  
      0.915434  0.915434  6.871331     0.072317   -0.085074    0.003061  
      2.862125  6.755507  6.755507     0.072317   -0.085074    0.003060  
      1.031257  4.924639  6.755507     0.072317   -0.085074    0.003061  
      6.755507  2.862125  6.755507     0.072317   -0.085074    0.003060  
      4.924639  1.031257  6.755507     0.072317   -0.085074    0.003061  
      6.755507  1.031257  4.924639     0.072323   -0.085079    0.003054  
      2.862125  4.924639  4.924639     0.072323   -0.085079    0.003054  
      4.924639  2.862125  4.924639     0.072323   -0.085079    0.003066  
      1.031257  6.755507  4.924639     0.072323   -0.085079    0.003066  
      0.915434  2.977948  4.808816     0.072323   -0.085079    0.003066  
      6.871331  4.808816  4.808816     0.072323   -0.085079    0.003054  
      4.808816  6.871331  4.808816     0.072323   -0.085079    0.003066  
      2.977948  0.915434  4.808816     0.072323   -0.085079    0.003054  
      2.977948  6.871331  2.977948     0.072317   -0.085074    0.003060  
      4.808816  0.915434  2.977948     0.072317   -0.085074    0.003061  
      6.871331  2.977948  2.977948     0.072317   -0.085074    0.003060  
      0.915434  4.808816  2.977948     0.072317   -0.085074    0.003061  
      4.924639  4.924639  2.862125     0.072317   -0.085074    0.003061  
      1.031257  1.031257  2.862125     0.072317   -0.085074    0.003061  
      2.862125  2.862125  2.862125     0.072317   -0.085074    0.003060  
      6.755507  6.755507  2.862125     0.072317   -0.085074    0.003060  
      1.031257  2.862125  1.031257     0.072323   -0.085079    0.003066  
      2.862125  1.031257  1.031257     0.072323   -0.085079    0.003054  
      4.924639  6.755507  1.031257     0.072323   -0.085079    0.003066  
      6.755507  4.924639  1.031257     0.072323   -0.085079    0.003054  
      6.871331  0.915434  0.915434     0.072323   -0.085079    0.003054  
      0.915434  6.871331  0.915434     0.072323   -0.085079    0.003066  
      2.977948  4.808816  0.915434     0.072323   -0.085079    0.003054  
      4.808816  2.977948  0.915434     0.072323   -0.085079    0.003066  
 
 168 f/i=    0.000657 THz     0.004129 2PiTHz    0.021921 cm-1     0.002718 meV
             X         Y         Z           dx          dy          dz
      0.973346  6.813419  6.813419    -0.006492   -0.011188   -0.157675  
      6.813419  0.973346  6.813419    -0.006490   -0.011190   -0.157675  
      4.866728  2.920037  6.813419    -0.006492   -0.011188   -0.157675  
      2.920037  4.866728  6.813419    -0.006490   -0.011190   -0.157675  
      5.840073  5.840073  5.840073    -0.006491   -0.011190   -0.157685  
      1.946691  1.946691  5.840073    -0.006491   -0.011190   -0.157685  
      4.866728  0.973346  4.866728    -0.006490   -0.011188   -0.157675  
      2.920037  6.813419  4.866728    -0.006492   -0.011190   -0.157676  
      0.973346  4.866728  4.866728    -0.006490   -0.011188   -0.157675  
      6.813419  2.920037  4.866728    -0.006492   -0.011190   -0.157676  
      0.000000  0.000000  3.893382    -0.006491   -0.011190   -0.157685  
      3.893382  3.893382  3.893382    -0.006491   -0.011190   -0.157685  
      6.813419  4.866728  2.920037    -0.006490   -0.011190   -0.157675  
      0.973346  2.920037  2.920037    -0.006492   -0.011188   -0.157675  
      2.920037  0.973346  2.920037    -0.006490   -0.011190   -0.157675  
      4.866728  6.813419  2.920037    -0.006492   -0.011188   -0.157675  
      1.946691  5.840073  1.946691    -0.006491   -0.011190   -0.157685  
      5.840073  1.946691  1.946691    -0.006491   -0.011190   -0.157685  
      0.973346  0.973346  0.973346    -0.006490   -0.011188   -0.157675  
      2.920037  2.920037  0.973346    -0.006492   -0.011190   -0.157676  
      4.866728  4.866728  0.973346    -0.006490   -0.011188   -0.157675  
      6.813419  6.813419  0.973346    -0.006492   -0.011190   -0.157676  
      3.893382  0.000000  0.000000    -0.006491   -0.011190   -0.157685  
      0.000000  3.893382  0.000000    -0.006491   -0.011190   -0.157685  
      6.871331  6.871331  6.871331    -0.004587   -0.007905   -0.111330  
      4.808816  4.808816  6.871331    -0.004579   -0.007896   -0.111329  
      2.977948  2.977948  6.871331    -0.004587   -0.007905   -0.111330  
      0.915434  0.915434  6.871331    -0.004579   -0.007896   -0.111329  
      2.862125  6.755507  6.755507    -0.004587   -0.007905   -0.111330  
      1.031257  4.924639  6.755507    -0.004579   -0.007896   -0.111329  
      6.755507  2.862125  6.755507    -0.004587   -0.007905   -0.111330  
      4.924639  1.031257  6.755507    -0.004579   -0.007896   -0.111329  
      6.755507  1.031257  4.924639    -0.004579   -0.007904   -0.111329  
      2.862125  4.924639  4.924639    -0.004579   -0.007904   -0.111329  
      4.924639  2.862125  4.924639    -0.004587   -0.007896   -0.111329  
      1.031257  6.755507  4.924639    -0.004587   -0.007896   -0.111329  
      0.915434  2.977948  4.808816    -0.004587   -0.007896   -0.111329  
      6.871331  4.808816  4.808816    -0.004579   -0.007904   -0.111329  
      4.808816  6.871331  4.808816    -0.004587   -0.007896   -0.111329  
      2.977948  0.915434  4.808816    -0.004579   -0.007904   -0.111329  
      2.977948  6.871331  2.977948    -0.004587   -0.007905   -0.111330  
      4.808816  0.915434  2.977948    -0.004579   -0.007896   -0.111329  
      6.871331  2.977948  2.977948    -0.004587   -0.007905   -0.111330  
      0.915434  4.808816  2.977948    -0.004579   -0.007896   -0.111329  
      4.924639  4.924639  2.862125    -0.004579   -0.007896   -0.111329  
      1.031257  1.031257  2.862125    -0.004579   -0.007896   -0.111329  
      2.862125  2.862125  2.862125    -0.004587   -0.007905   -0.111330  
      6.755507  6.755507  2.862125    -0.004587   -0.007905   -0.111330  
      1.031257  2.862125  1.031257    -0.004587   -0.007896   -0.111329  
      2.862125  1.031257  1.031257    -0.004579   -0.007904   -0.111329  
      4.924639  6.755507  1.031257    -0.004587   -0.007896   -0.111329  
      6.755507  4.924639  1.031257    -0.004579   -0.007904   -0.111329  
      6.871331  0.915434  0.915434    -0.004579   -0.007904   -0.111329  
      0.915434  6.871331  0.915434    -0.004587   -0.007896   -0.111329  
      2.977948  4.808816  0.915434    -0.004579   -0.007904   -0.111329  
      4.808816  2.977948  0.915434    -0.004587   -0.007896   -0.111329  
 


--------------------------------------------------------------------------------------------------------



 ELASTIC MODULI CONTR FROM IONIC RELAXATION (kBar)
 Direction    XX          YY          ZZ          XY          YZ          ZX
 --------------------------------------------------------------------------------
 XX        -293.5993    101.3822    101.3822      0.0000      0.0000      0.0000
 YY         101.3822   -293.5993    101.3822      0.0000      0.0000      0.0000
 ZZ         101.3822    101.3822   -293.5993      0.0000      0.0000      0.0000
 XY           0.0000      0.0000      0.0000    -73.4574      0.0000      0.0000
 YZ           0.0000      0.0000      0.0000      0.0000    -73.4574      0.0000
 ZX           0.0000      0.0000      0.0000      0.0000      0.0000    -73.4574
 --------------------------------------------------------------------------------


 TOTAL ELASTIC MODULI (kBar)
 Direction    XX          YY          ZZ          XY          YZ          ZX
 --------------------------------------------------------------------------------
 XX        5195.2239   1846.1307   1846.1307      0.0000      0.0000      0.0000
 YY        1846.1307   5195.2239   1846.1307      0.0000      0.0000      0.0000
 ZZ        1846.1307   1846.1307   5195.2239      0.0000      0.0000      0.0000
 XY           0.0000      0.0000      0.0000   3290.0420      0.0000      0.0000
 YZ           0.0000      0.0000      0.0000      0.0000   3290.0420      0.0000
 ZX           0.0000      0.0000      0.0000      0.0000      0.0000   3290.0420
 --------------------------------------------------------------------------------



--------------------------------------------------------------------------------------------------------


  LATTYP: Found a simple cubic cell.
 ALAT       =     7.7867631903
  
  Lattice vectors:
  
 A1 = (   7.7867631903,   0.0000000000,   0.0000000000)
 A2 = (   0.0000000000,   7.7867631903,   0.0000000000)
 A3 = (   0.0000000000,   0.0000000000,   7.7867631903)


Analysis of symmetry for initial positions (statically):
=====================================================================
 Subroutine PRICEL returns following result:
 
  LATTYP: Found a face centered cubic cell.
 ALAT       =     7.7867631903
  
  Lattice vectors:
  
 A1 = (   3.8933815952,   3.8933815952,   0.0000000000)
 A2 = (   3.8933815952,   0.0000000000,  -3.8933815952)
 A3 = (   0.0000000000,   3.8933815952,  -3.8933815952)
 
   4 primitive cells build up your supercell.
 

 Routine SETGRP: Setting up the symmetry group for a 
 simple cubic supercell.


 Subroutine GETGRP returns: Found 48 space group operations
 (whereof 24 operations were pure point group operations)
 out of a pool of 48 trial point group operations.


The static configuration has the point symmetry T_d .
 The point group associated with its full space group is O_h .


Analysis of symmetry for dynamics (positions and initial velocities):
=====================================================================
 Subroutine PRICEL returns following result:
 
  LATTYP: Found a face centered cubic cell.
 ALAT       =     7.7867631903
  
  Lattice vectors:
  
 A1 = (   3.8933815952,   3.8933815952,   0.0000000000)
 A2 = (   3.8933815952,   0.0000000000,  -3.8933815952)
 A3 = (   0.0000000000,   3.8933815952,  -3.8933815952)
 
   4 primitive cells build up your supercell.
 

 Routine SETGRP: Setting up the symmetry group for a 
 simple cubic supercell.


 Subroutine GETGRP returns: Found 48 space group operations
 (whereof 24 operations were pure point group operations)
 out of a pool of 48 trial point group operations.


The dynamic configuration has the point symmetry T_d .
 The point group associated with its full space group is O_h .


Analysis of constrained symmetry for selective dynamics:
=====================================================================
 Subroutine PRICEL returns following result:
 
  LATTYP: Found a face centered cubic cell.
 ALAT       =     7.7867631903
  
  Lattice vectors:
  
 A1 = (   3.8933815952,   3.8933815952,   0.0000000000)
 A2 = (   3.8933815952,   0.0000000000,  -3.8933815952)
 A3 = (   0.0000000000,   3.8933815952,  -3.8933815952)
 
   4 primitive cells build up your supercell.
 

 Routine SETGRP: Setting up the symmetry group for a 
 simple cubic supercell.


 Subroutine GETGRP returns: Found 48 space group operations
 (whereof 24 operations were pure point group operations)
 out of a pool of 48 trial point group operations.


The constrained configuration has the point symmetry T_d .
 The point group associated with its full space group is O_h .


 Subroutine INISYM returns: Found 48 space group operations
 (whereof 24 operations are pure point group operations),
 and found     4 'primitive' translations

 
 KPOINTS: Automatic mesh                          

Automatic generation of k-mesh.
Space group operators:
 irot       det(A)        alpha          n_x          n_y          n_z        tau_x        tau_y        tau_z
    1     1.000000     0.000000     1.000000     0.000000     0.000000     0.000000     0.000000     0.000000
    2     1.000000   120.000000    -0.577350    -0.577350    -0.577350     0.000000     0.000000     0.000000
    3     1.000000   120.000000     0.577350     0.577350     0.577350     0.000000     0.000000     0.000000
    4    -1.000000    90.000000     0.000000     0.000000    -1.000000     0.000000     0.000000     0.000000
    5    -1.000000   180.000000     0.000000    -0.707107    -0.707107     0.000000     0.000000     0.000000
    6    -1.000000    90.000000     0.000000     1.000000     0.000000     0.000000     0.000000     0.000000
    7     1.000000   180.000000     0.000000     0.000000     1.000000     0.000000     0.000000     0.000000
    8     1.000000   120.000000    -0.577350     0.577350     0.577350     0.000000     0.000000     0.000000
    9     1.000000   120.000000    -0.577350     0.577350    -0.577350     0.000000     0.000000     0.000000
   10    -1.000000    90.000000     0.000000     0.000000     1.000000     0.000000     0.000000     0.000000
   11    -1.000000    90.000000    -1.000000     0.000000     0.000000     0.000000     0.000000     0.000000
   12    -1.000000   179.999999     0.707107     0.000000     0.707107     0.000000     0.000000     0.000000
   13     1.000000   120.000000     0.577350    -0.577350     0.577350     0.000000     0.000000     0.000000
   14     1.000000   120.000000    -0.577350    -0.577350     0.577350     0.000000     0.000000     0.000000
   15     1.000000   180.000000     1.000000     0.000000     0.000000     0.000000     0.000000     0.000000
   16    -1.000000    90.000000     0.000000    -1.000000     0.000000     0.000000     0.000000     0.000000
   17    -1.000000   180.000000    -0.707107    -0.707107     0.000000     0.000000     0.000000     0.000000
   18    -1.000000    90.000000     1.000000     0.000000     0.000000     0.000000     0.000000     0.000000
   19     1.000000   120.000000     0.577350    -0.577350    -0.577350     0.000000     0.000000     0.000000
   20     1.000000   180.000000     0.000000     1.000000     0.000000     0.000000     0.000000     0.000000
   21     1.000000   120.000000     0.577350     0.577350    -0.577350     0.000000     0.000000     0.000000
   22    -1.000000   180.000000     0.000000    -0.707107     0.707107     0.000000     0.000000     0.000000
   23    -1.000000   180.000000    -0.707107     0.707107     0.000000     0.000000     0.000000     0.000000
   24    -1.000000   180.000000    -0.707107     0.000000     0.707107     0.000000     0.000000     0.000000
   25    -1.000000     0.000000     1.000000     0.000000     0.000000     0.750000     0.750000    -0.750000
   26    -1.000000   120.000000    -0.577350    -0.577350    -0.577350     0.750000     0.750000    -0.750000
   27    -1.000000   120.000000     0.577350     0.577350     0.577350     0.750000     0.750000    -0.750000
   28     1.000000    90.000000     0.000000     0.000000    -1.000000     0.750000     0.750000    -0.750000
   29     1.000000   180.000000     0.000000    -0.707107    -0.707107     0.750000     0.750000    -0.750000
   30     1.000000    90.000000     0.000000     1.000000     0.000000     0.750000     0.750000    -0.750000
   31    -1.000000   180.000000     0.000000     0.000000     1.000000     0.750000     0.750000    -0.750000
   32    -1.000000   120.000000    -0.577350     0.577350     0.577350     0.750000     0.750000    -0.750000
   33    -1.000000   120.000000    -0.577350     0.577350    -0.577350     0.750000     0.750000    -0.750000
   34     1.000000    90.000000     0.000000     0.000000     1.000000     0.750000     0.750000    -0.750000
   35     1.000000    90.000000    -1.000000     0.000000     0.000000     0.750000     0.750000    -0.750000
   36     1.000000   179.999999     0.707107     0.000000     0.707107     0.750000     0.750000    -0.750000
   37    -1.000000   120.000000     0.577350    -0.577350     0.577350     0.750000     0.750000    -0.750000
   38    -1.000000   120.000000    -0.577350    -0.577350     0.577350     0.750000     0.750000    -0.750000
   39    -1.000000   180.000000     1.000000     0.000000     0.000000     0.750000     0.750000    -0.750000
   40     1.000000    90.000000     0.000000    -1.000000     0.000000     0.750000     0.750000    -0.750000
   41     1.000000   180.000000    -0.707107    -0.707107     0.000000     0.750000     0.750000    -0.750000
   42     1.000000    90.000000     1.000000     0.000000     0.000000     0.750000     0.750000    -0.750000
   43    -1.000000   120.000000     0.577350    -0.577350    -0.577350     0.750000     0.750000    -0.750000
   44    -1.000000   180.000000     0.000000     1.000000     0.000000     0.750000     0.750000    -0.750000
   45    -1.000000   120.000000     0.577350     0.577350    -0.577350     0.750000     0.750000    -0.750000
   46     1.000000   180.000000     0.000000    -0.707107     0.707107     0.750000     0.750000    -0.750000
   47     1.000000   180.000000    -0.707107     0.707107     0.000000     0.750000     0.750000    -0.750000
   48     1.000000   180.000000    -0.707107     0.000000     0.707107     0.750000     0.750000    -0.750000
 
 Subroutine IBZKPT returns following result:
 ===========================================
 
 Found      4 irreducible k-points:
 
 Following reciprocal coordinates:
            Coordinates               Weight
  0.000000  0.000000  0.000000      1.000000
  0.333333  0.000000  0.000000      6.000000
  0.333333  0.333333  0.000000     12.000000
  0.333333  0.333333  0.333333      8.000000
 
 Following cartesian coordinates:
            Coordinates               Weight
  0.000000  0.000000  0.000000      1.000000
  0.042808  0.000000  0.000000      6.000000
  0.042808  0.042808  0.000000     12.000000
  0.042808  0.042808  0.042808      8.000000
 
     LOOP+:  cpu time  130.5484: real time  130.8577
    4ORBIT:  cpu time    0.0000: real time    0.0000

 total amount of memory used by VASP on root node    87135. kBytes
========================================================================

   base      :      30000. kBytes
   nonl-proj :      16941. kBytes
   fftplans  :      16810. kBytes
   grid      :      15225. kBytes
   one-center:        172. kBytes
   wavefun   :       7987. kBytes
 
  
  
 General timing and accounting informations for this job:
 ========================================================
  
                  Total CPU time used (sec):     2382.970
                            User time (sec):     2382.131
                          System time (sec):        0.840
                         Elapsed time (sec):     2390.676
  
                   Maximum memory used (kb):      178140.
                   Average memory used (kb):           0.
  
                          Minor page faults:       324022
                          Major page faults:            6
                 Voluntary context switches:         3313
