<?xml version="1.0" encoding="ISO-8859-1"?>
<modeling>
 <generator>
  <i name="program" type="string">vasp </i>
  <i name="version" type="string">5.4.1  </i>
  <i name="subversion" type="string">05Feb16 (build Mar 26 2016 11:58:25) complex                          parallel </i>
  <i name="platform" type="string">IFC91_ompi </i>
  <i name="date" type="string">2016 06 01 </i>
  <i name="time" type="string">10:57:47 </i>
 </generator>
 <incar>
  <i type="string" name="SYSTEM"> POSCAR (VASP)</i>
  <i type="string" name="PREC">accurate</i>
  <i type="int" name="IALGO">    38</i>
  <i type="logical" name="ADDGRID"> T  </i>
  <i type="int" name="IBRION">     6</i>
  <i name="EDIFF">      0.00000001</i>
  <i type="int" name="ISIF">     3</i>
  <i name="ENCUT">    500.00000000</i>
  <i type="logical" name="LREAL"> F  </i>
  <i type="int" name="ISMEAR">     0</i>
  <i name="SIGMA">      0.01000000</i>
  <i type="logical" name="LWAVE"> F  </i>
  <i type="logical" name="LCHARG"> F  </i>
  <v type="int" name="KPOINT_BSE">    -1     0     0     0</v>
 </incar>
 <kpoints>
  <generation param="Monkhorst-Pack">
   <v type="int" name="divisions">       3        3        3 </v>
   <v name="usershift">      0.00000000       0.00000000       0.00000000 </v>
   <v name="genvec1">      0.33333333       0.00000000       0.00000000 </v>
   <v name="genvec2">      0.00000000       0.33333333       0.00000000 </v>
   <v name="genvec3">      0.00000000       0.00000000       0.33333333 </v>
   <v name="shift">      0.00000000       0.00000000       0.00000000 </v>
  </generation>
  <varray name="kpointlist" >
   <v>       0.00000000       0.00000000       0.00000000 </v>
   <v>       0.33333333       0.00000000       0.00000000 </v>
   <v>       0.33333333       0.33333333       0.00000000 </v>
   <v>       0.33333333       0.33333333       0.33333333 </v>
  </varray>
  <varray name="weights" >
   <v>       0.03703704 </v>
   <v>       0.22222222 </v>
   <v>       0.44444444 </v>
   <v>       0.29629630 </v>
  </varray>
 </kpoints>
 <parameters>
  <separator name="general" >
   <i type="string" name="SYSTEM">POSCAR (VASP)</i>
   <i type="logical" name="LCOMPAT"> F  </i>
  </separator>
  <separator name="electronic" >
   <i type="string" name="PREC">accura</i>
   <i name="ENMAX">    500.00000000</i>
   <i name="ENAUG">    627.11200000</i>
   <i name="EDIFF">      0.00000001</i>
   <i type="int" name="IALGO">    38</i>
   <i type="int" name="IWAVPR">    11</i>
   <i type="int" name="NBANDS">   160</i>
   <i name="NELECT">    256.00000000</i>
   <i type="int" name="TURBO">     0</i>
   <i type="int" name="IRESTART">     0</i>
   <i type="int" name="NREBOOT">     0</i>
   <i type="int" name="NMIN">     0</i>
   <i name="EREF">      0.00000000</i>
   <separator name="electronic smearing" >
    <i type="int" name="ISMEAR">     0</i>
    <i name="SIGMA">      0.01000000</i>
    <i name="KSPACING">      0.50000000</i>
    <i type="logical" name="KGAMMA"> T  </i>
   </separator>
   <separator name="electronic projectors" >
    <i type="logical" name="LREAL"> F  </i>
    <v name="ROPT">      0.00000000      0.00000000</v>
    <i type="int" name="LMAXPAW">  -100</i>
    <i type="int" name="LMAXMIX">     2</i>
    <i type="logical" name="NLSPLINE"> F  </i>
   </separator>
   <separator name="electronic startup" >
    <i type="int" name="ISTART">     0</i>
    <i type="int" name="ICHARG">     2</i>
    <i type="int" name="INIWAV">     1</i>
   </separator>
   <separator name="electronic spin" >
    <i type="int" name="ISPIN">     1</i>
    <i type="logical" name="LNONCOLLINEAR"> F  </i>
    <v name="MAGMOM">      1.00000000      1.00000000      1.00000000      1.00000000      1.00000000      1.00000000      1.00000000      1.00000000      1.00000000      1.00000000      1.00000000      1.00000000      1.00000000      1.00000000      1.00000000      1.00000000      1.00000000      1.00000000      1.00000000      1.00000000
      1.00000000      1.00000000      1.00000000      1.00000000      1.00000000      1.00000000      1.00000000      1.00000000      1.00000000      1.00000000      1.00000000      1.00000000      1.00000000      1.00000000      1.00000000      1.00000000      1.00000000      1.00000000      1.00000000      1.00000000
      1.00000000      1.00000000      1.00000000      1.00000000      1.00000000      1.00000000      1.00000000      1.00000000      1.00000000      1.00000000      1.00000000      1.00000000      1.00000000      1.00000000      1.00000000      1.00000000</v>
    <i name="NUPDOWN">     -1.00000000</i>
    <i type="logical" name="LSORBIT"> F  </i>
    <v name="SAXIS">      0.00000000      0.00000000      1.00000000</v>
    <i type="logical" name="LSPIRAL"> F  </i>
    <v name="QSPIRAL">      0.00000000      0.00000000      0.00000000</v>
    <i type="logical" name="LZEROZ"> F  </i>
   </separator>
   <separator name="electronic exchange-correlation" >
    <i type="logical" name="LASPH"> F  </i>
    <i type="logical" name="LMETAGGA"> F  </i>
   </separator>
   <separator name="electronic convergence" >
    <i type="int" name="NELM">    60</i>
    <i type="int" name="NELMDL">     0</i>
    <i type="int" name="NELMIN">     2</i>
    <i name="ENINI">    500.00000000</i>
    <separator name="electronic convergence detail" >
     <i type="logical" name="LDIAG"> T  </i>
     <i type="logical" name="LSUBROT"> F  </i>
     <i name="WEIMIN">      0.00100000</i>
     <i name="EBREAK">      0.00000000</i>
     <i name="DEPER">      0.30000000</i>
     <i type="int" name="NRMM">     4</i>
     <i name="TIME">      0.40000000</i>
    </separator>
   </separator>
   <separator name="electronic mixer" >
    <i name="AMIX">      0.40000000</i>
    <i name="BMIX">      1.00000000</i>
    <i name="AMIN">      0.10000000</i>
    <i name="AMIX_MAG">      1.60000000</i>
    <i name="BMIX_MAG">      1.00000000</i>
    <separator name="electronic mixer details" >
     <i type="int" name="IMIX">     4</i>
     <i type="logical" name="MIXFIRST"> F  </i>
     <i type="int" name="MAXMIX">   -45</i>
     <i name="WC">    100.00000000</i>
     <i type="int" name="INIMIX">     1</i>
     <i type="int" name="MIXPRE">     1</i>
     <i type="int" name="MREMOVE">     5</i>
    </separator>
   </separator>
   <separator name="electronic dipolcorrection" >
    <i type="logical" name="LDIPOL"> F  </i>
    <i type="logical" name="LMONO"> F  </i>
    <i type="int" name="IDIPOL">     0</i>
    <i name="EPSILON">      1.00000000</i>
    <v name="DIPOL">   -100.00000000   -100.00000000   -100.00000000</v>
    <i name="EFIELD">      0.00000000</i>
   </separator>
  </separator>
  <separator name="grids" >
   <i type="int" name="NGX">    60</i>
   <i type="int" name="NGY">    60</i>
   <i type="int" name="NGZ">    60</i>
   <i type="int" name="NGXF">   120</i>
   <i type="int" name="NGYF">   120</i>
   <i type="int" name="NGZF">   120</i>
   <i type="logical" name="ADDGRID"> T  </i>
  </separator>
  <separator name="ionic" >
   <i type="int" name="NSW">   709</i>
   <i type="int" name="IBRION">     6</i>
   <i type="int" name="ISIF">     3</i>
   <i name="PSTRESS">      0.00000000</i>
   <i name="EDIFFG">      0.00000010</i>
   <i type="int" name="NFREE">     2</i>
   <i name="POTIM">      0.50000000</i>
   <i name="SMASS">     -3.00000000</i>
   <i name="SCALEE">      1.00000000</i>
  </separator>
  <separator name="ionic md" >
   <i name="TEBEG">      0.00010000</i>
   <i name="TEEND">      0.00010000</i>
   <i type="int" name="NBLOCK">     1</i>
   <i type="int" name="KBLOCK">     1</i>
   <i type="int" name="NPACO">   256</i>
   <i name="APACO">     16.00000000</i>
  </separator>
  <separator name="symmetry" >
   <i type="int" name="ISYM">     2</i>
   <i name="SYMPREC">      0.00001000</i>
  </separator>
  <separator name="dos" >
   <i type="logical" name="LORBIT"> F  </i>
   <v name="RWIGS">     -1.00000000     -1.00000000</v>
   <i type="int" name="NEDOS">   301</i>
   <i name="EMIN">     10.00000000</i>
   <i name="EMAX">    -10.00000000</i>
   <i name="EFERMI">      0.00000000</i>
  </separator>
  <separator name="writing" >
   <i type="int" name="NWRITE">     2</i>
   <i type="logical" name="LWAVE"> F  </i>
   <i type="logical" name="LCHARG"> F  </i>
   <i type="logical" name="LPARD"> F  </i>
   <i type="logical" name="LVTOT"> F  </i>
   <i type="logical" name="LVHAR"> F  </i>
   <i type="logical" name="LELF"> F  </i>
   <i type="logical" name="LOPTICS"> F  </i>
   <v name="STM">      0.00000000      0.00000000      0.00000000      0.00000000      0.00000000      0.00000000      0.00000000</v>
  </separator>
  <separator name="performance" >
   <i type="int" name="NPAR">    16</i>
   <i type="int" name="NSIM">     4</i>
   <i type="int" name="NBLK">    -1</i>
   <i type="logical" name="LPLANE"> T  </i>
   <i type="logical" name="LSCALAPACK"> T  </i>
   <i type="logical" name="LSCAAWARE"> F  </i>
   <i type="logical" name="LSCALU"> F  </i>
   <i type="logical" name="LASYNC"> F  </i>
   <i type="logical" name="LORBITALREAL"> F  </i>
  </separator>
  <separator name="miscellaneous" >
   <i type="int" name="IDIOT">     3</i>
   <i type="logical" name="LMUSIC"> F  </i>
   <v name="POMASS">     28.08500000     14.00100000</v>
   <v name="DARWINR">      0.00000000      0.00000000</v>
   <v name="DARWINV">      1.00000000      1.00000000</v>
   <i type="logical" name="LCORR"> T  </i>
  </separator>
  <i type="logical" name="GGA_COMPAT"> T  </i>
  <i type="logical" name="LBERRY"> F  </i>
  <i type="int" name="ICORELEVEL">     0</i>
  <i type="logical" name="LDAU"> F  </i>
  <i type="int" name="I_CONSTRAINED_M">     0</i>
  <separator name="electronic exchange-correlation" >
   <i type="string" name="GGA">--</i>
   <i type="int" name="VOSKOWN">     0</i>
   <i type="logical" name="LHFCALC"> F  </i>
   <i type="string" name="PRECFOCK"></i>
   <i type="logical" name="LSYMGRAD"> F  </i>
   <i type="logical" name="LHFONE"> F  </i>
   <i type="logical" name="LRHFCALC"> F  </i>
   <i type="logical" name="LTHOMAS"> F  </i>
   <i type="logical" name="LMODELHF"> F  </i>
   <i name="ENCUT4O">     -1.00000000</i>
   <i type="int" name="EXXOEP">     0</i>
   <i type="int" name="FOURORBIT">     0</i>
   <i name="AEXX">      0.00000000</i>
   <i name="HFALPHA">      0.00000000</i>
   <i name="MCALPHA">      0.00000000</i>
   <i name="ALDAX">      1.00000000</i>
   <i name="AGGAX">      1.00000000</i>
   <i name="ALDAC">      1.00000000</i>
   <i name="AGGAC">      1.00000000</i>
   <i type="int" name="NKREDX">     1</i>
   <i type="int" name="NKREDY">     1</i>
   <i type="int" name="NKREDZ">     1</i>
   <i type="logical" name="SHIFTRED"> F  </i>
   <i type="logical" name="ODDONLY"> F  </i>
   <i type="logical" name="EVENONLY"> F  </i>
   <i type="int" name="LMAXFOCK">     0</i>
   <i type="int" name="NMAXFOCKAE">     0</i>
   <i type="logical" name="LFOCKAEDFT"> F  </i>
   <i name="HFSCREEN">      0.00000000</i>
   <i name="HFSCREENC">      0.00000000</i>
   <i type="int" name="NBANDSGWLOW">     0</i>
  </separator>
  <separator name="vdW DFT" >
   <i type="logical" name="LUSE_VDW"> F  </i>
   <i name="Zab_VDW">     -0.84910000</i>
   <i name="PARAM1">      0.12340000</i>
   <i name="PARAM2">      1.00000000</i>
   <i name="PARAM3">      0.00000000</i>
  </separator>
  <separator name="model GW" >
   <i type="int" name="MODEL_GW">     0</i>
   <i name="MODEL_EPS0">      5.05864409</i>
   <i name="MODEL_ALPHA">      1.00000000</i>
  </separator>
  <separator name="linear response parameters" >
   <i type="logical" name="LEPSILON"> F  </i>
   <i type="logical" name="LRPA"> F  </i>
   <i type="logical" name="LNABLA"> F  </i>
   <i type="logical" name="LVEL"> F  </i>
   <i type="int" name="KINTER">     0</i>
   <i name="CSHIFT">      0.10000000</i>
   <i name="OMEGAMAX">     -1.00000000</i>
   <i name="DEG_THRESHOLD">      0.00200000</i>
  </separator>
  <separator name="orbital magnetization" >
   <i type="logical" name="NUCIND"> F  </i>
   <v name="MAGPOS">      0.00000000      0.00000000      0.00000000</v>
   <i type="logical" name="LNICSALL"> T  </i>
   <i type="logical" name="ORBITALMAG"> F  </i>
   <i type="logical" name="LMAGBLOCH"> F  </i>
   <i type="logical" name="LCHIMAG"> F  </i>
   <i type="logical" name="LGAUGE"> T  </i>
   <i type="int" name="MAGATOM">     0</i>
   <v name="MAGDIPOL">      0.00000000      0.00000000      0.00000000</v>
   <v name="AVECCONST">      0.00000000      0.00000000      0.00000000</v>
  </separator>
  <separator name="response functions" >
   <i type="logical" name="LADDER"> F  </i>
   <i type="logical" name="LFXC"> F  </i>
   <i type="logical" name="LHARTREE"> T  </i>
   <i type="int" name="IBSE">     0</i>
   <v type="int" name="KPOINT">    -1     0     0     0</v>
   <i type="logical" name="LTCTE"> F  </i>
   <i type="logical" name="LTETE"> F  </i>
   <i type="logical" name="LTRIPLET"> F  </i>
   <i type="logical" name="LFXCEPS"> F  </i>
   <i type="logical" name="LFXHEG"> F  </i>
   <i type="int" name="NATURALO">     0</i>
   <i type="logical" name="L2ORDER"> F  </i>
   <i type="logical" name="LUSEW"> F  </i>
   <i name="ENCUTGW">     -2.00000000</i>
   <i name="ENCUTGWSOFT">     -2.00000000</i>
   <i name="ENCUTLF">     -1.00000000</i>
   <i type="int" name="LMAXMP2">    -1</i>
   <i name="SCISSOR">      0.00000000</i>
   <i type="int" name="NOMEGA">     0</i>
   <i type="int" name="NOMEGAR">     0</i>
   <i type="int" name="NBANDSGW">    -1</i>
   <i type="int" name="NBANDSO">    -1</i>
   <i type="int" name="NBANDSV">    -1</i>
   <i type="int" name="NELM">     1</i>
   <i type="int" name="NELMHF">     1</i>
   <i type="int" name="DIM">     3</i>
   <i type="int" name="ANTIRES">     0</i>
   <i name="OMEGAMAX">    -30.00000000</i>
   <i name="OMEGAMIN">    -30.00000000</i>
   <i name="OMEGATL">   -200.00000000</i>
   <i type="int" name="OMEGAGRID">     0</i>
   <i name="CSHIFT">     -0.10000000</i>
   <i type="logical" name="SELFENERGY"> F  </i>
   <i type="logical" name="LSPECTRAL"> F  </i>
   <i type="logical" name="LSPECTRALGW"> F  </i>
   <i type="logical" name="LSINGLES"> F  </i>
   <i type="logical" name="LFERMIGW"> F  </i>
   <i type="logical" name="ODDONLYGW"> F  </i>
   <i type="logical" name="EVENONLYGW"> F  </i>
   <i type="int" name="NKREDLFX">     1</i>
   <i type="int" name="NKREDLFY">     1</i>
   <i type="int" name="NKREDLFZ">     1</i>
   <i type="int" name="MAXMEM">  1800</i>
   <i type="int" name="TELESCOPE">     0</i>
   <i type="int" name="TAUPAR">     1</i>
   <i type="int" name="OMEGAPAR">    -1</i>
   <i name="LAMBDA">      1.00000000</i>
  </separator>
  <separator name="External order field" >
   <i name="OFIELD_KAPPA">      0.00000000</i>
   <v name="OFIELD_K">      0.00000000      0.00000000      0.00000000</v>
   <i name="OFIELD_Q6_NEAR">      0.00000000</i>
   <i name="OFIELD_Q6_FAR">      0.00000000</i>
   <i name="OFIELD_A">      0.00000000</i>
  </separator>
 </parameters>
 <atominfo>
  <atoms>      56 </atoms>
  <types>       2 </types>
  <array name="atoms" >
   <dimension dim="1">ion</dimension>
   <field type="string">element</field>
   <field type="int">atomtype</field>
   <set>
    <rc><c>Si</c><c>   1</c></rc>
    <rc><c>Si</c><c>   1</c></rc>
    <rc><c>Si</c><c>   1</c></rc>
    <rc><c>Si</c><c>   1</c></rc>
    <rc><c>Si</c><c>   1</c></rc>
    <rc><c>Si</c><c>   1</c></rc>
    <rc><c>Si</c><c>   1</c></rc>
    <rc><c>Si</c><c>   1</c></rc>
    <rc><c>Si</c><c>   1</c></rc>
    <rc><c>Si</c><c>   1</c></rc>
    <rc><c>Si</c><c>   1</c></rc>
    <rc><c>Si</c><c>   1</c></rc>
    <rc><c>Si</c><c>   1</c></rc>
    <rc><c>Si</c><c>   1</c></rc>
    <rc><c>Si</c><c>   1</c></rc>
    <rc><c>Si</c><c>   1</c></rc>
    <rc><c>Si</c><c>   1</c></rc>
    <rc><c>Si</c><c>   1</c></rc>
    <rc><c>Si</c><c>   1</c></rc>
    <rc><c>Si</c><c>   1</c></rc>
    <rc><c>Si</c><c>   1</c></rc>
    <rc><c>Si</c><c>   1</c></rc>
    <rc><c>Si</c><c>   1</c></rc>
    <rc><c>Si</c><c>   1</c></rc>
    <rc><c>N </c><c>   2</c></rc>
    <rc><c>N </c><c>   2</c></rc>
    <rc><c>N </c><c>   2</c></rc>
    <rc><c>N </c><c>   2</c></rc>
    <rc><c>N </c><c>   2</c></rc>
    <rc><c>N </c><c>   2</c></rc>
    <rc><c>N </c><c>   2</c></rc>
    <rc><c>N </c><c>   2</c></rc>
    <rc><c>N </c><c>   2</c></rc>
    <rc><c>N </c><c>   2</c></rc>
    <rc><c>N </c><c>   2</c></rc>
    <rc><c>N </c><c>   2</c></rc>
    <rc><c>N </c><c>   2</c></rc>
    <rc><c>N </c><c>   2</c></rc>
    <rc><c>N </c><c>   2</c></rc>
    <rc><c>N </c><c>   2</c></rc>
    <rc><c>N </c><c>   2</c></rc>
    <rc><c>N </c><c>   2</c></rc>
    <rc><c>N </c><c>   2</c></rc>
    <rc><c>N </c><c>   2</c></rc>
    <rc><c>N </c><c>   2</c></rc>
    <rc><c>N </c><c>   2</c></rc>
    <rc><c>N </c><c>   2</c></rc>
    <rc><c>N </c><c>   2</c></rc>
    <rc><c>N </c><c>   2</c></rc>
    <rc><c>N </c><c>   2</c></rc>
    <rc><c>N </c><c>   2</c></rc>
    <rc><c>N </c><c>   2</c></rc>
    <rc><c>N </c><c>   2</c></rc>
    <rc><c>N </c><c>   2</c></rc>
    <rc><c>N </c><c>   2</c></rc>
    <rc><c>N </c><c>   2</c></rc>
   </set>
  </array>
  <array name="atomtypes" >
   <dimension dim="1">type</dimension>
   <field type="int">atomspertype</field>
   <field type="string">element</field>
   <field>mass</field>
   <field>valence</field>
   <field type="string">pseudopotential</field>
   <set>
    <rc><c>  24</c><c>Si</c><c>     28.08500000</c><c>      4.00000000</c><c> PAW_PBE Si 05Jan2001                   </c></rc>
    <rc><c>  32</c><c>N </c><c>     14.00100000</c><c>      5.00000000</c><c> PAW_PBE N 08Apr2002                    </c></rc>
   </set>
  </array>
 </atominfo>
 <structure name="initialpos" >
  <crystal>
   <varray name="basis" >
    <v>       7.78676319       0.00000000       0.00000000 </v>
    <v>       0.00000000       7.78676319       0.00000000 </v>
    <v>       0.00000000       0.00000000       7.78676319 </v>
   </varray>
   <i name="volume">    472.14011517 </i>
   <varray name="rec_basis" >
    <v>       0.12842307       0.00000000       0.00000000 </v>
    <v>       0.00000000       0.12842307       0.00000000 </v>
    <v>       0.00000000       0.00000000       0.12842307 </v>
   </varray>
  </crystal>
  <varray name="positions" >
   <v>       0.12500002       0.87500015       0.87500015 </v>
   <v>       0.87500015       0.12500002       0.87500015 </v>
   <v>       0.62500010       0.37500006       0.87500015 </v>
   <v>       0.37500006       0.62500010       0.87500015 </v>
   <v>       0.75000012       0.75000012       0.75000012 </v>
   <v>       0.25000004       0.25000004       0.75000012 </v>
   <v>       0.62500010       0.12500002       0.62500010 </v>
   <v>       0.37500006       0.87500015       0.62500010 </v>
   <v>       0.12500002       0.62500010       0.62500010 </v>
   <v>       0.87500015       0.37500006       0.62500010 </v>
   <v>       0.00000000       0.00000000       0.50000008 </v>
   <v>       0.50000008       0.50000008       0.50000008 </v>
   <v>       0.87500015       0.62500010       0.37500006 </v>
   <v>       0.12500002       0.37500006       0.37500006 </v>
   <v>       0.37500006       0.12500002       0.37500006 </v>
   <v>       0.62500010       0.87500015       0.37500006 </v>
   <v>       0.25000004       0.75000012       0.25000004 </v>
   <v>       0.75000012       0.25000004       0.25000004 </v>
   <v>       0.12500002       0.12500002       0.12500002 </v>
   <v>       0.37500006       0.37500006       0.12500002 </v>
   <v>       0.62500010       0.62500010       0.12500002 </v>
   <v>       0.87500015       0.87500015       0.12500002 </v>
   <v>       0.50000008       0.00000000       0.00000000 </v>
   <v>       0.00000000       0.50000008       0.00000000 </v>
   <v>       0.88243733       0.88243733       0.88243733 </v>
   <v>       0.61756292       0.61756292       0.88243733 </v>
   <v>       0.38243724       0.38243724       0.88243733 </v>
   <v>       0.11756284       0.11756284       0.88243733 </v>
   <v>       0.36756288       0.86756296       0.86756296 </v>
   <v>       0.13243720       0.63243729       0.86756296 </v>
   <v>       0.86756296       0.36756288       0.86756296 </v>
   <v>       0.63243729       0.13243720       0.86756296 </v>
   <v>       0.86756296       0.13243720       0.63243729 </v>
   <v>       0.36756288       0.63243729       0.63243729 </v>
   <v>       0.63243729       0.36756288       0.63243729 </v>
   <v>       0.13243720       0.86756296       0.63243729 </v>
   <v>       0.11756284       0.38243724       0.61756292 </v>
   <v>       0.88243733       0.61756292       0.61756292 </v>
   <v>       0.61756292       0.88243733       0.61756292 </v>
   <v>       0.38243724       0.11756284       0.61756292 </v>
   <v>       0.38243724       0.88243733       0.38243724 </v>
   <v>       0.61756292       0.11756284       0.38243724 </v>
   <v>       0.88243733       0.38243724       0.38243724 </v>
   <v>       0.11756284       0.61756292       0.38243724 </v>
   <v>       0.63243729       0.63243729       0.36756288 </v>
   <v>       0.13243720       0.13243720       0.36756288 </v>
   <v>       0.36756288       0.36756288       0.36756288 </v>
   <v>       0.86756296       0.86756296       0.36756288 </v>
   <v>       0.13243720       0.36756288       0.13243720 </v>
   <v>       0.36756288       0.13243720       0.13243720 </v>
   <v>       0.63243729       0.86756296       0.13243720 </v>
   <v>       0.86756296       0.63243729       0.13243720 </v>
   <v>       0.88243733       0.11756284       0.11756284 </v>
   <v>       0.11756284       0.88243733       0.11756284 </v>
   <v>       0.38243724       0.61756292       0.11756284 </v>
   <v>       0.61756292       0.38243724       0.11756284 </v>
  </varray>
  <varray name="selective"  type="logical" >
   <v type="logical" >  T  T  T </v>
   <v type="logical" >  T  T  T </v>
   <v type="logical" >  T  T  T </v>
   <v type="logical" >  T  T  T </v>
   <v type="logical" >  T  T  T </v>
   <v type="logical" >  T  T  T </v>
   <v type="logical" >  T  T  T </v>
   <v type="logical" >  T  T  T </v>
   <v type="logical" >  T  T  T </v>
   <v type="logical" >  T  T  T </v>
   <v type="logical" >  T  T  T </v>
   <v type="logical" >  T  T  T </v>
   <v type="logical" >  T  T  T </v>
   <v type="logical" >  T  T  T </v>
   <v type="logical" >  T  T  T </v>
   <v type="logical" >  T  T  T </v>
   <v type="logical" >  T  T  T </v>
   <v type="logical" >  T  T  T </v>
   <v type="logical" >  T  T  T </v>
   <v type="logical" >  T  T  T </v>
   <v type="logical" >  T  T  T </v>
   <v type="logical" >  T  T  T </v>
   <v type="logical" >  T  T  T </v>
   <v type="logical" >  T  T  T </v>
   <v type="logical" >  T  T  T </v>
   <v type="logical" >  T  T  T </v>
   <v type="logical" >  T  T  T </v>
   <v type="logical" >  T  T  T </v>
   <v type="logical" >  T  T  T </v>
   <v type="logical" >  T  T  T </v>
   <v type="logical" >  T  T  T </v>
   <v type="logical" >  T  T  T </v>
   <v type="logical" >  T  T  T </v>
   <v type="logical" >  T  T  T </v>
   <v type="logical" >  T  T  T </v>
   <v type="logical" >  T  T  T </v>
   <v type="logical" >  T  T  T </v>
   <v type="logical" >  T  T  T </v>
   <v type="logical" >  T  T  T </v>
   <v type="logical" >  T  T  T </v>
   <v type="logical" >  T  T  T </v>
   <v type="logical" >  T  T  T </v>
   <v type="logical" >  T  T  T </v>
   <v type="logical" >  T  T  T </v>
   <v type="logical" >  T  T  T </v>
   <v type="logical" >  T  T  T </v>
   <v type="logical" >  T  T  T </v>
   <v type="logical" >  T  T  T </v>
   <v type="logical" >  T  T  T </v>
   <v type="logical" >  T  T  T </v>
   <v type="logical" >  T  T  T </v>
   <v type="logical" >  T  T  T </v>
   <v type="logical" >  T  T  T </v>
   <v type="logical" >  T  T  T </v>
   <v type="logical" >  T  T  T </v>
   <v type="logical" >  T  T  T </v>
  </varray>
  <nose>
   <v>      -3.00000000       0.00000000       0.00010000       0.00010000 </v>
  </nose>
 </structure>
 <calculation>
  <scstep>
   <time name="dav">    3.50    3.50</time>
   <time name="total">    3.71    3.72</time>
   <energy>
    <i name="alphaZ">    482.99658975 </i>
    <i name="ewald"> -11364.45623007 </i>
    <i name="hartreedc">  -1532.59692421 </i>
    <i name="XCdc">    458.74847815 </i>
    <i name="pawpsdc">   4376.96732092 </i>
    <i name="pawaedc">  -3998.87981828 </i>
    <i name="eentropy">     -0.00121746 </i>
    <i name="bandstr">   1756.96240209 </i>
    <i name="atom">  10938.70534400 </i>
    <i name="e_fr_energy">   1118.44594490 </i>
    <i name="e_wo_entrp">   1118.44716235 </i>
    <i name="e_0_energy">   1118.44655363 </i>
   </energy>
  </scstep>
  <scstep>
   <time name="dav">    4.27    4.27</time>
   <time name="total">    4.27    4.28</time>
   <energy>
    <i name="e_fr_energy">   -420.43312275 </i>
    <i name="e_wo_entrp">   -420.43312275 </i>
    <i name="e_0_energy">   -420.43312275 </i>
   </energy>
  </scstep>
  <scstep>
   <time name="dav">    4.02    4.02</time>
   <time name="total">    4.02    4.02</time>
   <energy>
    <i name="e_fr_energy">   -500.54829987 </i>
    <i name="e_wo_entrp">   -500.54829987 </i>
    <i name="e_0_energy">   -500.54829987 </i>
   </energy>
  </scstep>
  <scstep>
   <time name="dav">    4.07    4.07</time>
   <time name="total">    4.07    4.08</time>
   <energy>
    <i name="e_fr_energy">   -501.79203808 </i>
    <i name="e_wo_entrp">   -501.79203808 </i>
    <i name="e_0_energy">   -501.79203808 </i>
   </energy>
  </scstep>
  <scstep>
   <time name="dav">    3.92    3.92</time>
   <time name="total">    4.26    4.27</time>
   <energy>
    <i name="e_fr_energy">   -501.81942828 </i>
    <i name="e_wo_entrp">   -501.81942828 </i>
    <i name="e_0_energy">   -501.81942828 </i>
   </energy>
  </scstep>
  <scstep>
   <time name="dav">    3.83    3.83</time>
   <time name="total">    4.37    4.38</time>
   <energy>
    <i name="e_fr_energy">   -450.30017197 </i>
    <i name="e_wo_entrp">   -450.30017197 </i>
    <i name="e_0_energy">   -450.30017197 </i>
   </energy>
  </scstep>
  <scstep>
   <time name="dav">    4.18    4.18</time>
   <time name="total">    4.72    4.73</time>
   <energy>
    <i name="e_fr_energy">   -450.01283317 </i>
    <i name="e_wo_entrp">   -450.01283317 </i>
    <i name="e_0_energy">   -450.01283317 </i>
   </energy>
  </scstep>
  <scstep>
   <time name="dav">    3.88    3.88</time>
   <time name="total">    4.42    4.43</time>
   <energy>
    <i name="e_fr_energy">   -449.97971927 </i>
    <i name="e_wo_entrp">   -449.97971927 </i>
    <i name="e_0_energy">   -449.97971927 </i>
   </energy>
  </scstep>
  <scstep>
   <time name="dav">    3.96    3.96</time>
   <time name="total">    4.51    4.52</time>
   <energy>
    <i name="e_fr_energy">   -449.94650049 </i>
    <i name="e_wo_entrp">   -449.94650049 </i>
    <i name="e_0_energy">   -449.94650049 </i>
   </energy>
  </scstep>
  <scstep>
   <time name="dav">    3.86    3.86</time>
   <time name="total">    4.40    4.41</time>
   <energy>
    <i name="e_fr_energy">   -449.94783436 </i>
    <i name="e_wo_entrp">   -449.94783436 </i>
    <i name="e_0_energy">   -449.94783436 </i>
   </energy>
  </scstep>
  <scstep>
   <time name="dav">    3.77    3.77</time>
   <time name="total">    4.31    4.32</time>
   <energy>
    <i name="e_fr_energy">   -449.94835220 </i>
    <i name="e_wo_entrp">   -449.94835220 </i>
    <i name="e_0_energy">   -449.94835220 </i>
   </energy>
  </scstep>
  <scstep>
   <time name="dav">    3.97    3.97</time>
   <time name="total">    4.51    4.52</time>
   <energy>
    <i name="e_fr_energy">   -449.94833886 </i>
    <i name="e_wo_entrp">   -449.94833886 </i>
    <i name="e_0_energy">   -449.94833886 </i>
   </energy>
  </scstep>
  <scstep>
   <time name="dav">    3.94    3.94</time>
   <time name="total">    4.48    4.49</time>
   <energy>
    <i name="e_fr_energy">   -449.94834134 </i>
    <i name="e_wo_entrp">   -449.94834134 </i>
    <i name="e_0_energy">   -449.94834134 </i>
   </energy>
  </scstep>
  <scstep>
   <time name="dav">    3.87    3.87</time>
   <time name="total">    4.41    4.42</time>
   <energy>
    <i name="e_fr_energy">   -449.94834193 </i>
    <i name="e_wo_entrp">   -449.94834193 </i>
    <i name="e_0_energy">   -449.94834193 </i>
   </energy>
  </scstep>
  <scstep>
   <time name="dav">    4.03    4.03</time>
   <time name="total">    4.58    4.61</time>
   <energy>
    <i name="e_fr_energy">   -449.94834202 </i>
    <i name="e_wo_entrp">   -449.94834202 </i>
    <i name="e_0_energy">   -449.94834202 </i>
   </energy>
  </scstep>
  <scstep>
   <time name="dav">    3.21    3.21</time>
   <time name="total">    3.75    3.76</time>
   <energy>
    <i name="e_fr_energy">   -449.94834206 </i>
    <i name="e_wo_entrp">   -449.94834206 </i>
    <i name="e_0_energy">   -449.94834206 </i>
   </energy>
  </scstep>
  <scstep>
   <time name="dav">    2.65    2.65</time>
   <time name="total">    3.19    3.23</time>
   <energy>
    <i name="e_fr_energy">   -449.94834211 </i>
    <i name="e_wo_entrp">   -449.94834211 </i>
    <i name="e_0_energy">   -449.94834211 </i>
   </energy>
  </scstep>
  <scstep>
   <time name="dav">    2.65    2.65</time>
   <time name="total">    2.85    2.86</time>
   <energy>
    <i name="alphaZ">    482.99658975 </i>
    <i name="ewald"> -11364.45623007 </i>
    <i name="hartreedc">  -1976.81159529 </i>
    <i name="XCdc">    495.47984265 </i>
    <i name="pawpsdc">   6094.79548154 </i>
    <i name="pawaedc">  -5724.81196328 </i>
    <i name="eentropy">      0.00000000 </i>
    <i name="bandstr">    604.15418860 </i>
    <i name="atom">  10938.70534400 </i>
    <i name="e_fr_energy">   -449.94834211 </i>
    <i name="e_wo_entrp">   -449.94834211 </i>
    <i name="e_0_energy">   -449.94834211 </i>
   </energy>
  </scstep>
  <structure>
   <crystal>
    <varray name="basis" >
     <v>       7.78676319       0.00000000       0.00000000 </v>
     <v>       0.00000000       7.78676319       0.00000000 </v>
     <v>       0.00000000       0.00000000       7.78676319 </v>
    </varray>
    <i name="volume">    472.14011517 </i>
    <varray name="rec_basis" >
     <v>       0.12842307       0.00000000       0.00000000 </v>
     <v>       0.00000000       0.12842307       0.00000000 </v>
     <v>       0.00000000       0.00000000       0.12842307 </v>
    </varray>
   </crystal>
   <varray name="positions" >
    <v>       0.12500002       0.87500015       0.87500015 </v>
    <v>       0.87500015       0.12500002       0.87500015 </v>
    <v>       0.62500010       0.37500006       0.87500015 </v>
    <v>       0.37500006       0.62500010       0.87500015 </v>
    <v>       0.75000012       0.75000012       0.75000012 </v>
    <v>       0.25000004       0.25000004       0.75000012 </v>
    <v>       0.62500010       0.12500002       0.62500010 </v>
    <v>       0.37500006       0.87500015       0.62500010 </v>
    <v>       0.12500002       0.62500010       0.62500010 </v>
    <v>       0.87500015       0.37500006       0.62500010 </v>
    <v>       0.00000000       0.00000000       0.50000008 </v>
    <v>       0.50000008       0.50000008       0.50000008 </v>
    <v>       0.87500015       0.62500010       0.37500006 </v>
    <v>       0.12500002       0.37500006       0.37500006 </v>
    <v>       0.37500006       0.12500002       0.37500006 </v>
    <v>       0.62500010       0.87500015       0.37500006 </v>
    <v>       0.25000004       0.75000012       0.25000004 </v>
    <v>       0.75000012       0.25000004       0.25000004 </v>
    <v>       0.12500002       0.12500002       0.12500002 </v>
    <v>       0.37500006       0.37500006       0.12500002 </v>
    <v>       0.62500010       0.62500010       0.12500002 </v>
    <v>       0.87500015       0.87500015       0.12500002 </v>
    <v>       0.50000008       0.00000000       0.00000000 </v>
    <v>       0.00000000       0.50000008       0.00000000 </v>
    <v>       0.88243733       0.88243733       0.88243733 </v>
    <v>       0.61756292       0.61756292       0.88243733 </v>
    <v>       0.38243724       0.38243724       0.88243733 </v>
    <v>       0.11756284       0.11756284       0.88243733 </v>
    <v>       0.36756288       0.86756296       0.86756296 </v>
    <v>       0.13243720       0.63243729       0.86756296 </v>
    <v>       0.86756296       0.36756288       0.86756296 </v>
    <v>       0.63243729       0.13243720       0.86756296 </v>
    <v>       0.86756296       0.13243720       0.63243729 </v>
    <v>       0.36756288       0.63243729       0.63243729 </v>
    <v>       0.63243729       0.36756288       0.63243729 </v>
    <v>       0.13243720       0.86756296       0.63243729 </v>
    <v>       0.11756284       0.38243724       0.61756292 </v>
    <v>       0.88243733       0.61756292       0.61756292 </v>
    <v>       0.61756292       0.88243733       0.61756292 </v>
    <v>       0.38243724       0.11756284       0.61756292 </v>
    <v>       0.38243724       0.88243733       0.38243724 </v>
    <v>       0.61756292       0.11756284       0.38243724 </v>
    <v>       0.88243733       0.38243724       0.38243724 </v>
    <v>       0.11756284       0.61756292       0.38243724 </v>
    <v>       0.63243729       0.63243729       0.36756288 </v>
    <v>       0.13243720       0.13243720       0.36756288 </v>
    <v>       0.36756288       0.36756288       0.36756288 </v>
    <v>       0.86756296       0.86756296       0.36756288 </v>
    <v>       0.13243720       0.36756288       0.13243720 </v>
    <v>       0.36756288       0.13243720       0.13243720 </v>
    <v>       0.63243729       0.86756296       0.13243720 </v>
    <v>       0.86756296       0.63243729       0.13243720 </v>
    <v>       0.88243733       0.11756284       0.11756284 </v>
    <v>       0.11756284       0.88243733       0.11756284 </v>
    <v>       0.38243724       0.61756292       0.11756284 </v>
    <v>       0.61756292       0.38243724       0.11756284 </v>
   </varray>
  </structure>
  <varray name="forces" >
   <v>       0.00000000       0.00000000       0.00000000 </v>
   <v>       0.00000000       0.00000000       0.00000000 </v>
   <v>       0.00000000       0.00000000       0.00000000 </v>
   <v>       0.00000000       0.00000000       0.00000000 </v>
   <v>       0.00000000       0.00000000       0.00000000 </v>
   <v>       0.00000000       0.00000000       0.00000000 </v>
   <v>       0.00000000       0.00000000       0.00000000 </v>
   <v>       0.00000000       0.00000000       0.00000000 </v>
   <v>       0.00000000       0.00000000       0.00000000 </v>
   <v>       0.00000000       0.00000000       0.00000000 </v>
   <v>       0.00000000       0.00000000       0.00000000 </v>
   <v>       0.00000000       0.00000000       0.00000000 </v>
   <v>       0.00000000       0.00000000       0.00000000 </v>
   <v>       0.00000000       0.00000000       0.00000000 </v>
   <v>       0.00000000       0.00000000       0.00000000 </v>
   <v>       0.00000000       0.00000000       0.00000000 </v>
   <v>       0.00000000       0.00000000       0.00000000 </v>
   <v>       0.00000000       0.00000000       0.00000000 </v>
   <v>       0.00000000       0.00000000       0.00000000 </v>
   <v>       0.00000000       0.00000000       0.00000000 </v>
   <v>       0.00000000       0.00000000       0.00000000 </v>
   <v>       0.00000000       0.00000000       0.00000000 </v>
   <v>       0.00000000       0.00000000       0.00000000 </v>
   <v>       0.00000000       0.00000000       0.00000000 </v>
   <v>       0.00000046       0.00000046       0.00000046 </v>
   <v>      -0.00000046      -0.00000046       0.00000046 </v>
   <v>       0.00000046       0.00000046       0.00000046 </v>
   <v>      -0.00000046      -0.00000046       0.00000046 </v>
   <v>      -0.00000046      -0.00000046      -0.00000046 </v>
   <v>       0.00000046       0.00000046      -0.00000046 </v>
   <v>      -0.00000046      -0.00000046      -0.00000046 </v>
   <v>       0.00000046       0.00000046      -0.00000046 </v>
   <v>      -0.00000046       0.00000046       0.00000046 </v>
   <v>      -0.00000046       0.00000046       0.00000046 </v>
   <v>       0.00000046      -0.00000046       0.00000046 </v>
   <v>       0.00000046      -0.00000046       0.00000046 </v>
   <v>      -0.00000046       0.00000046      -0.00000046 </v>
   <v>       0.00000046      -0.00000046      -0.00000046 </v>
   <v>      -0.00000046       0.00000046      -0.00000046 </v>
   <v>       0.00000046      -0.00000046      -0.00000046 </v>
   <v>       0.00000046       0.00000046       0.00000046 </v>
   <v>      -0.00000046      -0.00000046       0.00000046 </v>
   <v>       0.00000046       0.00000046       0.00000046 </v>
   <v>      -0.00000046      -0.00000046       0.00000046 </v>
   <v>       0.00000046       0.00000046      -0.00000046 </v>
   <v>       0.00000046       0.00000046      -0.00000046 </v>
   <v>      -0.00000046      -0.00000046      -0.00000046 </v>
   <v>      -0.00000046      -0.00000046      -0.00000046 </v>
   <v>       0.00000046      -0.00000046       0.00000046 </v>
   <v>      -0.00000046       0.00000046       0.00000046 </v>
   <v>       0.00000046      -0.00000046       0.00000046 </v>
   <v>      -0.00000046       0.00000046       0.00000046 </v>
   <v>       0.00000046      -0.00000046      -0.00000046 </v>
   <v>      -0.00000046       0.00000046      -0.00000046 </v>
   <v>       0.00000046      -0.00000046      -0.00000046 </v>
   <v>      -0.00000046       0.00000046      -0.00000046 </v>
  </varray>
  <varray name="stress" >
   <v>       0.00017063       0.00000000       0.00000000 </v>
   <v>       0.00000000       0.00017063       0.00000000 </v>
   <v>       0.00000000       0.00000000       0.00017063 </v>
  </varray>
  <energy>
   <i name="e_fr_energy">   -449.94834211 </i>
   <i name="e_wo_entrp">   -449.94834211 </i>
   <i name="e_0_energy">      0.00000000 </i>
  </energy>
  <kpoints>
   <generation param="Monkhorst-Pack">
    <v type="int" name="divisions">       3        3        3 </v>
    <v name="usershift">      0.00000000       0.00000000       0.00000000 </v>
    <v name="genvec1">      0.33333333       0.00000000       0.00000000 </v>
    <v name="genvec2">      0.00000000       0.33333333       0.00000000 </v>
    <v name="genvec3">      0.00000000       0.00000000       0.33333333 </v>
    <v name="shift">      0.00000000       0.00000000       0.00000000 </v>
   </generation>
   <varray name="kpointlist" >
    <v>       0.00000000       0.00000000       0.00000000 </v>
    <v>       0.33333333       0.00000000       0.00000000 </v>
    <v>       0.00000000       0.33333333       0.00000000 </v>
    <v>       0.33333333       0.33333333       0.00000000 </v>
    <v>       0.00000000       0.33333333       0.33333333 </v>
    <v>       0.33333333       0.33333333       0.33333333 </v>
   </varray>
   <varray name="weights" >
    <v>       0.03703704 </v>
    <v>       0.07407407 </v>
    <v>       0.14814815 </v>
    <v>       0.29629630 </v>
    <v>       0.14814815 </v>
    <v>       0.29629630 </v>
   </varray>
  </kpoints>
  <time name="totalsc">   85.56   85.78</time>
 </calculation>
 <calculation>
  <scstep>
   <time name="dav">    5.81    5.80</time>
   <time name="total">    6.41    6.41</time>
   <energy>
    <i name="alphaZ">    475.85870911 </i>
    <i name="ewald"> -11307.74597791 </i>
    <i name="hartreedc">  -1966.92984130 </i>
    <i name="XCdc">    491.24358691 </i>
    <i name="pawpsdc">   6094.79544554 </i>
    <i name="pawaedc">  -5724.81192694 </i>
    <i name="eentropy">      0.00000000 </i>
    <i name="bandstr">    548.90423396 </i>
    <i name="atom">  10938.70534400 </i>
    <i name="e_fr_energy">   -449.98042664 </i>
    <i name="e_wo_entrp">   -449.98042664 </i>
    <i name="e_0_energy">   -449.98042664 </i>
   </energy>
  </scstep>
  <scstep>
   <time name="dav">    5.87    5.86</time>
   <time name="total">    6.47    6.48</time>
   <energy>
    <i name="e_fr_energy">   -449.82410562 </i>
    <i name="e_wo_entrp">   -449.82410562 </i>
    <i name="e_0_energy">   -449.82410562 </i>
   </energy>
  </scstep>
  <scstep>
   <time name="dav">    6.06    6.06</time>
   <time name="total">    6.66    6.67</time>
   <energy>
    <i name="e_fr_energy">   -449.77907862 </i>
    <i name="e_wo_entrp">   -449.77907862 </i>
    <i name="e_0_energy">   -449.77907862 </i>
   </energy>
  </scstep>
  <scstep>
   <time name="dav">    6.00    6.01</time>
   <time name="total">    6.61    6.62</time>
   <energy>
    <i name="e_fr_energy">   -449.77526708 </i>
    <i name="e_wo_entrp">   -449.77526708 </i>
    <i name="e_0_energy">   -449.77526708 </i>
   </energy>
  </scstep>
  <scstep>
   <time name="dav">    5.87    5.86</time>
   <time name="total">    6.47    6.48</time>
   <energy>
    <i name="e_fr_energy">   -449.77415198 </i>
    <i name="e_wo_entrp">   -449.77415198 </i>
    <i name="e_0_energy">   -449.77415198 </i>
   </energy>
  </scstep>
  <scstep>
   <time name="dav">    5.91    5.91</time>
   <time name="total">    6.52    6.53</time>
   <energy>
    <i name="e_fr_energy">   -449.77415372 </i>
    <i name="e_wo_entrp">   -449.77415372 </i>
    <i name="e_0_energy">   -449.77415372 </i>
   </energy>
  </scstep>
  <scstep>
   <time name="dav">    5.83    5.82</time>
   <time name="total">    6.43    6.44</time>
   <energy>
    <i name="e_fr_energy">   -449.77411724 </i>
    <i name="e_wo_entrp">   -449.77411724 </i>
    <i name="e_0_energy">   -449.77411724 </i>
   </energy>
  </scstep>
  <scstep>
   <time name="dav">    6.31    6.31</time>
   <time name="total">    6.92    6.93</time>
   <energy>
    <i name="e_fr_energy">   -449.77411797 </i>
    <i name="e_wo_entrp">   -449.77411797 </i>
    <i name="e_0_energy">   -449.77411797 </i>
   </energy>
  </scstep>
  <scstep>
   <time name="dav">    5.79    5.79</time>
   <time name="total">    6.39    6.41</time>
   <energy>
    <i name="e_fr_energy">   -449.77411617 </i>
    <i name="e_wo_entrp">   -449.77411617 </i>
    <i name="e_0_energy">   -449.77411617 </i>
   </energy>
  </scstep>
  <scstep>
   <time name="dav">    6.22    6.23</time>
   <time name="total">    6.83    6.84</time>
   <energy>
    <i name="e_fr_energy">   -449.77411626 </i>
    <i name="e_wo_entrp">   -449.77411626 </i>
    <i name="e_0_energy">   -449.77411626 </i>
   </energy>
  </scstep>
  <scstep>
   <time name="dav">    4.20    4.20</time>
   <time name="total">    4.40    4.42</time>
   <energy>
    <i name="alphaZ">    475.85870911 </i>
    <i name="ewald"> -11307.74597791 </i>
    <i name="hartreedc">  -1987.43963170 </i>
    <i name="XCdc">    492.58172502 </i>
    <i name="pawpsdc">   6046.40242528 </i>
    <i name="pawaedc">  -5676.06346465 </i>
    <i name="eentropy">      0.00000000 </i>
    <i name="bandstr">    567.92675460 </i>
    <i name="atom">  10938.70534400 </i>
    <i name="e_fr_energy">   -449.77411625 </i>
    <i name="e_wo_entrp">   -449.77411625 </i>
    <i name="e_0_energy">   -449.77411625 </i>
   </energy>
  </scstep>
  <structure>
   <crystal>
    <varray name="basis" >
     <v>       7.90356464       0.00000000       0.00000000 </v>
     <v>       0.00000000       7.78676319       0.00000000 </v>
     <v>       0.00000000       0.00000000       7.78676319 </v>
    </varray>
    <i name="volume">    479.22221690 </i>
    <varray name="rec_basis" >
     <v>       0.12652519       0.00000000       0.00000000 </v>
     <v>       0.00000000       0.12842307       0.00000000 </v>
     <v>       0.00000000       0.00000000       0.12842307 </v>
    </varray>
   </crystal>
   <varray name="positions" >
    <v>       0.12500002       0.87500015       0.87500015 </v>
    <v>       0.87500015       0.12500002       0.87500015 </v>
    <v>       0.62500010       0.37500006       0.87500015 </v>
    <v>       0.37500006       0.62500010       0.87500015 </v>
    <v>       0.75000012       0.75000012       0.75000012 </v>
    <v>       0.25000004       0.25000004       0.75000012 </v>
    <v>       0.62500010       0.12500002       0.62500010 </v>
    <v>       0.37500006       0.87500015       0.62500010 </v>
    <v>       0.12500002       0.62500010       0.62500010 </v>
    <v>       0.87500015       0.37500006       0.62500010 </v>
    <v>       0.00000000       0.00000000       0.50000008 </v>
    <v>       0.50000008       0.50000008       0.50000008 </v>
    <v>       0.87500015       0.62500010       0.37500006 </v>
    <v>       0.12500002       0.37500006       0.37500006 </v>
    <v>       0.37500006       0.12500002       0.37500006 </v>
    <v>       0.62500010       0.87500015       0.37500006 </v>
    <v>       0.25000004       0.75000012       0.25000004 </v>
    <v>       0.75000012       0.25000004       0.25000004 </v>
    <v>       0.12500002       0.12500002       0.12500002 </v>
    <v>       0.37500006       0.37500006       0.12500002 </v>
    <v>       0.62500010       0.62500010       0.12500002 </v>
    <v>       0.87500015       0.87500015       0.12500002 </v>
    <v>       0.50000008       0.00000000       0.00000000 </v>
    <v>       0.00000000       0.50000008       0.00000000 </v>
    <v>       0.88243733       0.88243733       0.88243733 </v>
    <v>       0.61756292       0.61756292       0.88243733 </v>
    <v>       0.38243724       0.38243724       0.88243733 </v>
    <v>       0.11756284       0.11756284       0.88243733 </v>
    <v>       0.36756288       0.86756296       0.86756296 </v>
    <v>       0.13243720       0.63243729       0.86756296 </v>
    <v>       0.86756296       0.36756288       0.86756296 </v>
    <v>       0.63243729       0.13243720       0.86756296 </v>
    <v>       0.86756296       0.13243720       0.63243729 </v>
    <v>       0.36756288       0.63243729       0.63243729 </v>
    <v>       0.63243729       0.36756288       0.63243729 </v>
    <v>       0.13243720       0.86756296       0.63243729 </v>
    <v>       0.11756284       0.38243724       0.61756292 </v>
    <v>       0.88243733       0.61756292       0.61756292 </v>
    <v>       0.61756292       0.88243733       0.61756292 </v>
    <v>       0.38243724       0.11756284       0.61756292 </v>
    <v>       0.38243724       0.88243733       0.38243724 </v>
    <v>       0.61756292       0.11756284       0.38243724 </v>
    <v>       0.88243733       0.38243724       0.38243724 </v>
    <v>       0.11756284       0.61756292       0.38243724 </v>
    <v>       0.63243729       0.63243729       0.36756288 </v>
    <v>       0.13243720       0.13243720       0.36756288 </v>
    <v>       0.36756288       0.36756288       0.36756288 </v>
    <v>       0.86756296       0.86756296       0.36756288 </v>
    <v>       0.13243720       0.36756288       0.13243720 </v>
    <v>       0.36756288       0.13243720       0.13243720 </v>
    <v>       0.63243729       0.86756296       0.13243720 </v>
    <v>       0.86756296       0.63243729       0.13243720 </v>
    <v>       0.88243733       0.11756284       0.11756284 </v>
    <v>       0.11756284       0.88243733       0.11756284 </v>
    <v>       0.38243724       0.61756292       0.11756284 </v>
    <v>       0.61756292       0.38243724       0.11756284 </v>
   </varray>
  </structure>
  <varray name="forces" >
   <v>       0.00000000       0.00000000       0.00000000 </v>
   <v>       0.00000000       0.00000000       0.00000000 </v>
   <v>       0.00000000       0.00000000       0.00000000 </v>
   <v>       0.00000000       0.00000000       0.00000000 </v>
   <v>       0.00000000       0.00000000       0.00000000 </v>
   <v>       0.00000000       0.00000000       0.00000000 </v>
   <v>       0.00000000       0.00000000       0.00000000 </v>
   <v>       0.00000000       0.00000000       0.00000000 </v>
   <v>       0.00000000       0.00000000       0.00000000 </v>
   <v>       0.00000000       0.00000000       0.00000000 </v>
   <v>       0.00000000       0.00000000       0.00000000 </v>
   <v>       0.00000000       0.00000000       0.00000000 </v>
   <v>       0.00000000       0.00000000       0.00000000 </v>
   <v>       0.00000000       0.00000000       0.00000000 </v>
   <v>       0.00000000       0.00000000       0.00000000 </v>
   <v>       0.00000000       0.00000000       0.00000000 </v>
   <v>       0.00000000       0.00000000       0.00000000 </v>
   <v>       0.00000000       0.00000000       0.00000000 </v>
   <v>       0.00000000       0.00000000       0.00000000 </v>
   <v>       0.00000000       0.00000000       0.00000000 </v>
   <v>       0.00000000       0.00000000       0.00000000 </v>
   <v>       0.00000000       0.00000000       0.00000000 </v>
   <v>       0.00000000       0.00000000       0.00000000 </v>
   <v>       0.00000000       0.00000000       0.00000000 </v>
   <v>       0.07984555      -0.00186436      -0.00186436 </v>
   <v>      -0.07984555       0.00186436      -0.00186436 </v>
   <v>       0.07984555      -0.00186436      -0.00186436 </v>
   <v>      -0.07984555       0.00186436      -0.00186436 </v>
   <v>      -0.07984555       0.00186436       0.00186436 </v>
   <v>       0.07984555      -0.00186436       0.00186436 </v>
   <v>      -0.07984555       0.00186436       0.00186436 </v>
   <v>       0.07984555      -0.00186436       0.00186436 </v>
   <v>      -0.07984555      -0.00186436      -0.00186436 </v>
   <v>      -0.07984555      -0.00186436      -0.00186436 </v>
   <v>       0.07984555       0.00186436      -0.00186436 </v>
   <v>       0.07984555       0.00186436      -0.00186436 </v>
   <v>      -0.07984555      -0.00186436       0.00186436 </v>
   <v>       0.07984555       0.00186436       0.00186436 </v>
   <v>      -0.07984555      -0.00186436       0.00186436 </v>
   <v>       0.07984555       0.00186436       0.00186436 </v>
   <v>       0.07984555      -0.00186436      -0.00186436 </v>
   <v>      -0.07984555       0.00186436      -0.00186436 </v>
   <v>       0.07984555      -0.00186436      -0.00186436 </v>
   <v>      -0.07984555       0.00186436      -0.00186436 </v>
   <v>       0.07984555      -0.00186436       0.00186436 </v>
   <v>       0.07984555      -0.00186436       0.00186436 </v>
   <v>      -0.07984555       0.00186436       0.00186436 </v>
   <v>      -0.07984555       0.00186436       0.00186436 </v>
   <v>       0.07984555       0.00186436      -0.00186436 </v>
   <v>      -0.07984555      -0.00186436      -0.00186436 </v>
   <v>       0.07984555       0.00186436      -0.00186436 </v>
   <v>      -0.07984555      -0.00186436      -0.00186436 </v>
   <v>       0.07984555       0.00186436       0.00186436 </v>
   <v>      -0.07984555      -0.00186436       0.00186436 </v>
   <v>       0.07984555       0.00186436       0.00186436 </v>
   <v>      -0.07984555      -0.00186436       0.00186436 </v>
  </varray>
  <varray name="stress" >
   <v>     -77.15484119       0.00000000       0.00000000 </v>
   <v>       0.00000000     -25.12357823       0.00000000 </v>
   <v>       0.00000000       0.00000000     -25.12357823 </v>
  </varray>
  <energy>
   <i name="e_fr_energy">   -449.77411625 </i>
   <i name="e_wo_entrp">   -449.77411625 </i>
   <i name="e_0_energy">      0.00000000 </i>
  </energy>
  <kpoints>
   <generation param="Monkhorst-Pack">
    <v type="int" name="divisions">       3        3        3 </v>
    <v name="usershift">      0.00000000       0.00000000       0.00000000 </v>
    <v name="genvec1">      0.33333333       0.00000000       0.00000000 </v>
    <v name="genvec2">      0.00000000       0.33333333       0.00000000 </v>
    <v name="genvec3">      0.00000000       0.00000000       0.33333333 </v>
    <v name="shift">      0.00000000       0.00000000       0.00000000 </v>
   </generation>
   <varray name="kpointlist" >
    <v>       0.00000000       0.00000000       0.00000000 </v>
    <v>       0.33333333       0.00000000       0.00000000 </v>
    <v>       0.00000000       0.33333333       0.00000000 </v>
    <v>       0.33333333       0.33333333       0.00000000 </v>
    <v>       0.00000000       0.33333333       0.33333333 </v>
    <v>       0.33333333       0.33333333       0.33333333 </v>
   </varray>
   <varray name="weights" >
    <v>       0.03703704 </v>
    <v>       0.07407407 </v>
    <v>       0.14814815 </v>
    <v>       0.29629630 </v>
    <v>       0.14814815 </v>
    <v>       0.29629630 </v>
   </varray>
  </kpoints>
  <time name="totalsc">   83.89   84.07</time>
 </calculation>
 <calculation>
  <scstep>
   <time name="dav">    5.77    5.77</time>
   <time name="total">    6.38    6.39</time>
   <energy>
    <i name="alphaZ">    490.35186776 </i>
    <i name="ewald"> -11421.38649488 </i>
    <i name="hartreedc">  -2006.88934540 </i>
    <i name="XCdc">    501.12835892 </i>
    <i name="pawpsdc">   6046.40260159 </i>
    <i name="pawaedc">  -5676.06365543 </i>
    <i name="eentropy">      0.00000000 </i>
    <i name="bandstr">    677.18234504 </i>
    <i name="atom">  10938.70534400 </i>
    <i name="e_fr_energy">   -450.56897839 </i>
    <i name="e_wo_entrp">   -450.56897839 </i>
    <i name="e_0_energy">   -450.56897839 </i>
   </energy>
  </scstep>
  <scstep>
   <time name="dav">    5.82    5.82</time>
   <time name="total">    6.43    6.44</time>
   <energy>
    <i name="e_fr_energy">   -449.95213461 </i>
    <i name="e_wo_entrp">   -449.95213461 </i>
    <i name="e_0_energy">   -449.95213461 </i>
   </energy>
  </scstep>
  <scstep>
   <time name="dav">    6.00    6.00</time>
   <time name="total">    6.61    6.62</time>
   <energy>
    <i name="e_fr_energy">   -449.77704040 </i>
    <i name="e_wo_entrp">   -449.77704040 </i>
    <i name="e_0_energy">   -449.77704040 </i>
   </energy>
  </scstep>
  <scstep>
   <time name="dav">    5.87    5.87</time>
   <time name="total">    6.48    6.49</time>
   <energy>
    <i name="e_fr_energy">   -449.76237376 </i>
    <i name="e_wo_entrp">   -449.76237376 </i>
    <i name="e_0_energy">   -449.76237376 </i>
   </energy>
  </scstep>
  <scstep>
   <time name="dav">    5.90    5.91</time>
   <time name="total">    6.51    6.52</time>
   <energy>
    <i name="e_fr_energy">   -449.75900160 </i>
    <i name="e_wo_entrp">   -449.75900160 </i>
    <i name="e_0_energy">   -449.75900160 </i>
   </energy>
  </scstep>
  <scstep>
   <time name="dav">    5.93    5.94</time>
   <time name="total">    6.54    6.56</time>
   <energy>
    <i name="e_fr_energy">   -449.75903686 </i>
    <i name="e_wo_entrp">   -449.75903686 </i>
    <i name="e_0_energy">   -449.75903686 </i>
   </energy>
  </scstep>
  <scstep>
   <time name="dav">    5.89    5.89</time>
   <time name="total">    6.50    6.72</time>
   <energy>
    <i name="e_fr_energy">   -449.75889228 </i>
    <i name="e_wo_entrp">   -449.75889228 </i>
    <i name="e_0_energy">   -449.75889228 </i>
   </energy>
  </scstep>
  <scstep>
   <time name="dav">    6.45    6.45</time>
   <time name="total">    7.06    7.07</time>
   <energy>
    <i name="e_fr_energy">   -449.75890235 </i>
    <i name="e_wo_entrp">   -449.75890235 </i>
    <i name="e_0_energy">   -449.75890235 </i>
   </energy>
  </scstep>
  <scstep>
   <time name="dav">    5.83    5.84</time>
   <time name="total">    6.45    6.46</time>
   <energy>
    <i name="e_fr_energy">   -449.75889792 </i>
    <i name="e_wo_entrp">   -449.75889792 </i>
    <i name="e_0_energy">   -449.75889792 </i>
   </energy>
  </scstep>
  <scstep>
   <time name="dav">    6.29    6.30</time>
   <time name="total">    6.90    6.93</time>
   <energy>
    <i name="e_fr_energy">   -449.75889781 </i>
    <i name="e_wo_entrp">   -449.75889781 </i>
    <i name="e_0_energy">   -449.75889781 </i>
   </energy>
  </scstep>
  <scstep>
   <time name="dav">    5.56    5.55</time>
   <time name="total">    6.17    6.22</time>
   <energy>
    <i name="e_fr_energy">   -449.75889786 </i>
    <i name="e_wo_entrp">   -449.75889786 </i>
    <i name="e_0_energy">   -449.75889786 </i>
   </energy>
  </scstep>
  <scstep>
   <time name="dav">    3.96    3.96</time>
   <time name="total">    4.58    4.60</time>
   <energy>
    <i name="e_fr_energy">   -449.75889778 </i>
    <i name="e_wo_entrp">   -449.75889778 </i>
    <i name="e_0_energy">   -449.75889778 </i>
   </energy>
  </scstep>
  <scstep>
   <time name="dav">    3.99    3.99</time>
   <time name="total">    4.20    4.20</time>
   <energy>
    <i name="alphaZ">    490.35186776 </i>
    <i name="ewald"> -11421.38649488 </i>
    <i name="hartreedc">  -1966.65898145 </i>
    <i name="XCdc">    498.47820327 </i>
    <i name="pawpsdc">   6145.86415270 </i>
    <i name="pawaedc">  -5776.26546121 </i>
    <i name="eentropy">      0.00000000 </i>
    <i name="bandstr">    641.15247203 </i>
    <i name="atom">  10938.70534400 </i>
    <i name="e_fr_energy">   -449.75889778 </i>
    <i name="e_wo_entrp">   -449.75889778 </i>
    <i name="e_0_energy">   -449.75889778 </i>
   </energy>
  </scstep>
  <structure>
   <crystal>
    <varray name="basis" >
     <v>       7.66996174       0.00000000       0.00000000 </v>
     <v>       0.00000000       7.78676319       0.00000000 </v>
     <v>       0.00000000       0.00000000       7.78676319 </v>
    </varray>
    <i name="volume">    465.05801344 </i>
    <varray name="rec_basis" >
     <v>       0.13037875       0.00000000       0.00000000 </v>
     <v>       0.00000000       0.12842307       0.00000000 </v>
     <v>       0.00000000       0.00000000       0.12842307 </v>
    </varray>
   </crystal>
   <varray name="positions" >
    <v>       0.12500002       0.87500015       0.87500015 </v>
    <v>       0.87500015       0.12500002       0.87500015 </v>
    <v>       0.62500010       0.37500006       0.87500015 </v>
    <v>       0.37500006       0.62500010       0.87500015 </v>
    <v>       0.75000012       0.75000012       0.75000012 </v>
    <v>       0.25000004       0.25000004       0.75000012 </v>
    <v>       0.62500010       0.12500002       0.62500010 </v>
    <v>       0.37500006       0.87500015       0.62500010 </v>
    <v>       0.12500002       0.62500010       0.62500010 </v>
    <v>       0.87500015       0.37500006       0.62500010 </v>
    <v>       0.00000000       0.00000000       0.50000008 </v>
    <v>       0.50000008       0.50000008       0.50000008 </v>
    <v>       0.87500015       0.62500010       0.37500006 </v>
    <v>       0.12500002       0.37500006       0.37500006 </v>
    <v>       0.37500006       0.12500002       0.37500006 </v>
    <v>       0.62500010       0.87500015       0.37500006 </v>
    <v>       0.25000004       0.75000012       0.25000004 </v>
    <v>       0.75000012       0.25000004       0.25000004 </v>
    <v>       0.12500002       0.12500002       0.12500002 </v>
    <v>       0.37500006       0.37500006       0.12500002 </v>
    <v>       0.62500010       0.62500010       0.12500002 </v>
    <v>       0.87500015       0.87500015       0.12500002 </v>
    <v>       0.50000008       0.00000000       0.00000000 </v>
    <v>       0.00000000       0.50000008       0.00000000 </v>
    <v>       0.88243733       0.88243733       0.88243733 </v>
    <v>       0.61756292       0.61756292       0.88243733 </v>
    <v>       0.38243724       0.38243724       0.88243733 </v>
    <v>       0.11756284       0.11756284       0.88243733 </v>
    <v>       0.36756288       0.86756296       0.86756296 </v>
    <v>       0.13243720       0.63243729       0.86756296 </v>
    <v>       0.86756296       0.36756288       0.86756296 </v>
    <v>       0.63243729       0.13243720       0.86756296 </v>
    <v>       0.86756296       0.13243720       0.63243729 </v>
    <v>       0.36756288       0.63243729       0.63243729 </v>
    <v>       0.63243729       0.36756288       0.63243729 </v>
    <v>       0.13243720       0.86756296       0.63243729 </v>
    <v>       0.11756284       0.38243724       0.61756292 </v>
    <v>       0.88243733       0.61756292       0.61756292 </v>
    <v>       0.61756292       0.88243733       0.61756292 </v>
    <v>       0.38243724       0.11756284       0.61756292 </v>
    <v>       0.38243724       0.88243733       0.38243724 </v>
    <v>       0.61756292       0.11756284       0.38243724 </v>
    <v>       0.88243733       0.38243724       0.38243724 </v>
    <v>       0.11756284       0.61756292       0.38243724 </v>
    <v>       0.63243729       0.63243729       0.36756288 </v>
    <v>       0.13243720       0.13243720       0.36756288 </v>
    <v>       0.36756288       0.36756288       0.36756288 </v>
    <v>       0.86756296       0.86756296       0.36756288 </v>
    <v>       0.13243720       0.36756288       0.13243720 </v>
    <v>       0.36756288       0.13243720       0.13243720 </v>
    <v>       0.63243729       0.86756296       0.13243720 </v>
    <v>       0.86756296       0.63243729       0.13243720 </v>
    <v>       0.88243733       0.11756284       0.11756284 </v>
    <v>       0.11756284       0.88243733       0.11756284 </v>
    <v>       0.38243724       0.61756292       0.11756284 </v>
    <v>       0.61756292       0.38243724       0.11756284 </v>
   </varray>
  </structure>
  <varray name="forces" >
   <v>       0.00000000       0.00000000       0.00000000 </v>
   <v>       0.00000000       0.00000000       0.00000000 </v>
   <v>       0.00000000       0.00000000       0.00000000 </v>
   <v>       0.00000000       0.00000000       0.00000000 </v>
   <v>       0.00000000       0.00000000       0.00000000 </v>
   <v>       0.00000000       0.00000000       0.00000000 </v>
   <v>       0.00000000       0.00000000       0.00000000 </v>
   <v>       0.00000000       0.00000000       0.00000000 </v>
   <v>       0.00000000       0.00000000       0.00000000 </v>
   <v>       0.00000000       0.00000000       0.00000000 </v>
   <v>       0.00000000       0.00000000       0.00000000 </v>
   <v>       0.00000000       0.00000000       0.00000000 </v>
   <v>       0.00000000       0.00000000       0.00000000 </v>
   <v>       0.00000000       0.00000000       0.00000000 </v>
   <v>       0.00000000       0.00000000       0.00000000 </v>
   <v>       0.00000000       0.00000000       0.00000000 </v>
   <v>       0.00000000       0.00000000       0.00000000 </v>
   <v>       0.00000000       0.00000000       0.00000000 </v>
   <v>       0.00000000       0.00000000       0.00000000 </v>
   <v>       0.00000000       0.00000000       0.00000000 </v>
   <v>       0.00000000       0.00000000       0.00000000 </v>
   <v>       0.00000000       0.00000000       0.00000000 </v>
   <v>       0.00000000       0.00000000       0.00000000 </v>
   <v>       0.00000000       0.00000000       0.00000000 </v>
   <v>      -0.12079527       0.00537185       0.00537185 </v>
   <v>       0.12079527      -0.00537185       0.00537185 </v>
   <v>      -0.12079527       0.00537185       0.00537185 </v>
   <v>       0.12079527      -0.00537185       0.00537185 </v>
   <v>       0.12079527      -0.00537185      -0.00537185 </v>
   <v>      -0.12079527       0.00537185      -0.00537185 </v>
   <v>       0.12079527      -0.00537185      -0.00537185 </v>
   <v>      -0.12079527       0.00537185      -0.00537185 </v>
   <v>       0.12079527       0.00537185       0.00537185 </v>
   <v>       0.12079527       0.00537185       0.00537185 </v>
   <v>      -0.12079527      -0.00537185       0.00537185 </v>
   <v>      -0.12079527      -0.00537185       0.00537185 </v>
   <v>       0.12079527       0.00537185      -0.00537185 </v>
   <v>      -0.12079527      -0.00537185      -0.00537185 </v>
   <v>       0.12079527       0.00537185      -0.00537185 </v>
   <v>      -0.12079527      -0.00537185      -0.00537185 </v>
   <v>      -0.12079527       0.00537185       0.00537185 </v>
   <v>       0.12079527      -0.00537185       0.00537185 </v>
   <v>      -0.12079527       0.00537185       0.00537185 </v>
   <v>       0.12079527      -0.00537185       0.00537185 </v>
   <v>      -0.12079527       0.00537185      -0.00537185 </v>
   <v>      -0.12079527       0.00537185      -0.00537185 </v>
   <v>       0.12079527      -0.00537185      -0.00537185 </v>
   <v>       0.12079527      -0.00537185      -0.00537185 </v>
   <v>      -0.12079527      -0.00537185       0.00537185 </v>
   <v>       0.12079527       0.00537185       0.00537185 </v>
   <v>      -0.12079527      -0.00537185       0.00537185 </v>
   <v>       0.12079527       0.00537185       0.00537185 </v>
   <v>      -0.12079527      -0.00537185      -0.00537185 </v>
   <v>       0.12079527       0.00537185      -0.00537185 </v>
   <v>      -0.12079527      -0.00537185      -0.00537185 </v>
   <v>       0.12079527       0.00537185      -0.00537185 </v>
  </varray>
  <varray name="stress" >
   <v>      87.67059102       0.00000000       0.00000000 </v>
   <v>       0.00000000      27.25322507       0.00000000 </v>
   <v>       0.00000000       0.00000000      27.25322507 </v>
  </varray>
  <energy>
   <i name="e_fr_energy">   -449.75889778 </i>
   <i name="e_wo_entrp">   -449.75889778 </i>
   <i name="e_0_energy">      0.00000000 </i>
  </energy>
  <kpoints>
   <generation param="Monkhorst-Pack">
    <v type="int" name="divisions">       3        3        3 </v>
    <v name="usershift">      0.00000000       0.00000000       0.00000000 </v>
    <v name="genvec1">      0.33333333       0.00000000       0.00000000 </v>
    <v name="genvec2">      0.00000000       0.33333333       0.00000000 </v>
    <v name="genvec3">      0.00000000       0.00000000       0.33333333 </v>
    <v name="shift">      0.00000000       0.00000000       0.00000000 </v>
   </generation>
   <varray name="kpointlist" >
    <v>       0.00000000       0.00000000       0.00000000 </v>
    <v>       0.33333333       0.00000000       0.00000000 </v>
    <v>       0.00000000       0.33333333       0.00000000 </v>
    <v>       0.33333333       0.33333333       0.00000000 </v>
    <v>       0.33333333       0.00000000       0.33333333 </v>
    <v>       0.33333333       0.33333333       0.33333333 </v>
   </varray>
   <varray name="weights" >
    <v>       0.03703704 </v>
    <v>       0.14814815 </v>
    <v>       0.07407407 </v>
    <v>       0.29629630 </v>
    <v>       0.14814815 </v>
    <v>       0.29629630 </v>
   </varray>
  </kpoints>
  <time name="totalsc">   94.70   95.18</time>
 </calculation>
 <calculation>
  <scstep>
   <time name="dav">    5.79    5.79</time>
   <time name="total">    6.39    6.41</time>
   <energy>
    <i name="alphaZ">    475.85870911 </i>
    <i name="ewald"> -11307.74597791 </i>
    <i name="hartreedc">  -1946.96455534 </i>
    <i name="XCdc">    489.93557451 </i>
    <i name="pawpsdc">   6145.86359840 </i>
    <i name="pawaedc">  -5776.26490487 </i>
    <i name="eentropy">      0.00000000 </i>
    <i name="bandstr">    530.30569348 </i>
    <i name="atom">  10938.70534400 </i>
    <i name="e_fr_energy">   -450.30651861 </i>
    <i name="e_wo_entrp">   -450.30651861 </i>
    <i name="e_0_energy">   -450.30651861 </i>
   </energy>
  </scstep>
  <scstep>
   <time name="dav">    5.78    5.78</time>
   <time name="total">    6.38    6.39</time>
   <energy>
    <i name="e_fr_energy">   -449.85858585 </i>
    <i name="e_wo_entrp">   -449.85858585 </i>
    <i name="e_0_energy">   -449.85858585 </i>
   </energy>
  </scstep>
  <scstep>
   <time name="dav">    6.06    6.06</time>
   <time name="total">    6.67    6.68</time>
   <energy>
    <i name="e_fr_energy">   -449.79146448 </i>
    <i name="e_wo_entrp">   -449.79146448 </i>
    <i name="e_0_energy">   -449.79146448 </i>
   </energy>
  </scstep>
  <scstep>
   <time name="dav">    5.85    5.86</time>
   <time name="total">    6.46    6.48</time>
   <energy>
    <i name="e_fr_energy">   -449.78030739 </i>
    <i name="e_wo_entrp">   -449.78030739 </i>
    <i name="e_0_energy">   -449.78030739 </i>
   </energy>
  </scstep>
  <scstep>
   <time name="dav">    5.86    5.86</time>
   <time name="total">    6.46    6.48</time>
   <energy>
    <i name="e_fr_energy">   -449.77414373 </i>
    <i name="e_wo_entrp">   -449.77414373 </i>
    <i name="e_0_energy">   -449.77414373 </i>
   </energy>
  </scstep>
  <scstep>
   <time name="dav">    6.21    6.22</time>
   <time name="total">    6.82    6.83</time>
   <energy>
    <i name="e_fr_energy">   -449.77425547 </i>
    <i name="e_wo_entrp">   -449.77425547 </i>
    <i name="e_0_energy">   -449.77425547 </i>
   </energy>
  </scstep>
  <scstep>
   <time name="dav">    5.90    5.91</time>
   <time name="total">    6.51    6.53</time>
   <energy>
    <i name="e_fr_energy">   -449.77412537 </i>
    <i name="e_wo_entrp">   -449.77412537 </i>
    <i name="e_0_energy">   -449.77412537 </i>
   </energy>
  </scstep>
  <scstep>
   <time name="dav">    6.20    6.21</time>
   <time name="total">    6.81    6.84</time>
   <energy>
    <i name="e_fr_energy">   -449.77411691 </i>
    <i name="e_wo_entrp">   -449.77411691 </i>
    <i name="e_0_energy">   -449.77411691 </i>
   </energy>
  </scstep>
  <scstep>
   <time name="dav">    6.34    6.34</time>
   <time name="total">    6.95    6.97</time>
   <energy>
    <i name="e_fr_energy">   -449.77411649 </i>
    <i name="e_wo_entrp">   -449.77411649 </i>
    <i name="e_0_energy">   -449.77411649 </i>
   </energy>
  </scstep>
  <scstep>
   <time name="dav">    5.84    5.86</time>
   <time name="total">    6.45    6.68</time>
   <energy>
    <i name="e_fr_energy">   -449.77411635 </i>
    <i name="e_wo_entrp">   -449.77411635 </i>
    <i name="e_0_energy">   -449.77411635 </i>
   </energy>
  </scstep>
  <scstep>
   <time name="dav">    3.97    3.98</time>
   <time name="total">    4.58    4.61</time>
   <energy>
    <i name="e_fr_energy">   -449.77411630 </i>
    <i name="e_wo_entrp">   -449.77411630 </i>
    <i name="e_0_energy">   -449.77411630 </i>
   </energy>
  </scstep>
  <scstep>
   <time name="dav">    3.99    4.00</time>
   <time name="total">    4.19    4.22</time>
   <energy>
    <i name="alphaZ">    475.85870911 </i>
    <i name="ewald"> -11307.74597791 </i>
    <i name="hartreedc">  -1987.43786325 </i>
    <i name="XCdc">    492.58158744 </i>
    <i name="pawpsdc">   6046.40254736 </i>
    <i name="pawaedc">  -5676.06363116 </i>
    <i name="eentropy">      0.00000000 </i>
    <i name="bandstr">    567.92516812 </i>
    <i name="atom">  10938.70534400 </i>
    <i name="e_fr_energy">   -449.77411629 </i>
    <i name="e_wo_entrp">   -449.77411629 </i>
    <i name="e_0_energy">   -449.77411629 </i>
   </energy>
  </scstep>
  <structure>
   <crystal>
    <varray name="basis" >
     <v>       7.78676319       0.00000000       0.00000000 </v>
     <v>       0.00000000       7.90356464       0.00000000 </v>
     <v>       0.00000000       0.00000000       7.78676319 </v>
    </varray>
    <i name="volume">    479.22221690 </i>
    <varray name="rec_basis" >
     <v>       0.12842307       0.00000000       0.00000000 </v>
     <v>       0.00000000       0.12652519       0.00000000 </v>
     <v>       0.00000000       0.00000000       0.12842307 </v>
    </varray>
   </crystal>
   <varray name="positions" >
    <v>       0.12500002       0.87500015       0.87500015 </v>
    <v>       0.87500015       0.12500002       0.87500015 </v>
    <v>       0.62500010       0.37500006       0.87500015 </v>
    <v>       0.37500006       0.62500010       0.87500015 </v>
    <v>       0.75000012       0.75000012       0.75000012 </v>
    <v>       0.25000004       0.25000004       0.75000012 </v>
    <v>       0.62500010       0.12500002       0.62500010 </v>
    <v>       0.37500006       0.87500015       0.62500010 </v>
    <v>       0.12500002       0.62500010       0.62500010 </v>
    <v>       0.87500015       0.37500006       0.62500010 </v>
    <v>       0.00000000       0.00000000       0.50000008 </v>
    <v>       0.50000008       0.50000008       0.50000008 </v>
    <v>       0.87500015       0.62500010       0.37500006 </v>
    <v>       0.12500002       0.37500006       0.37500006 </v>
    <v>       0.37500006       0.12500002       0.37500006 </v>
    <v>       0.62500010       0.87500015       0.37500006 </v>
    <v>       0.25000004       0.75000012       0.25000004 </v>
    <v>       0.75000012       0.25000004       0.25000004 </v>
    <v>       0.12500002       0.12500002       0.12500002 </v>
    <v>       0.37500006       0.37500006       0.12500002 </v>
    <v>       0.62500010       0.62500010       0.12500002 </v>
    <v>       0.87500015       0.87500015       0.12500002 </v>
    <v>       0.50000008       0.00000000       0.00000000 </v>
    <v>       0.00000000       0.50000008       0.00000000 </v>
    <v>       0.88243733       0.88243733       0.88243733 </v>
    <v>       0.61756292       0.61756292       0.88243733 </v>
    <v>       0.38243724       0.38243724       0.88243733 </v>
    <v>       0.11756284       0.11756284       0.88243733 </v>
    <v>       0.36756288       0.86756296       0.86756296 </v>
    <v>       0.13243720       0.63243729       0.86756296 </v>
    <v>       0.86756296       0.36756288       0.86756296 </v>
    <v>       0.63243729       0.13243720       0.86756296 </v>
    <v>       0.86756296       0.13243720       0.63243729 </v>
    <v>       0.36756288       0.63243729       0.63243729 </v>
    <v>       0.63243729       0.36756288       0.63243729 </v>
    <v>       0.13243720       0.86756296       0.63243729 </v>
    <v>       0.11756284       0.38243724       0.61756292 </v>
    <v>       0.88243733       0.61756292       0.61756292 </v>
    <v>       0.61756292       0.88243733       0.61756292 </v>
    <v>       0.38243724       0.11756284       0.61756292 </v>
    <v>       0.38243724       0.88243733       0.38243724 </v>
    <v>       0.61756292       0.11756284       0.38243724 </v>
    <v>       0.88243733       0.38243724       0.38243724 </v>
    <v>       0.11756284       0.61756292       0.38243724 </v>
    <v>       0.63243729       0.63243729       0.36756288 </v>
    <v>       0.13243720       0.13243720       0.36756288 </v>
    <v>       0.36756288       0.36756288       0.36756288 </v>
    <v>       0.86756296       0.86756296       0.36756288 </v>
    <v>       0.13243720       0.36756288       0.13243720 </v>
    <v>       0.36756288       0.13243720       0.13243720 </v>
    <v>       0.63243729       0.86756296       0.13243720 </v>
    <v>       0.86756296       0.63243729       0.13243720 </v>
    <v>       0.88243733       0.11756284       0.11756284 </v>
    <v>       0.11756284       0.88243733       0.11756284 </v>
    <v>       0.38243724       0.61756292       0.11756284 </v>
    <v>       0.61756292       0.38243724       0.11756284 </v>
   </varray>
  </structure>
  <varray name="forces" >
   <v>       0.00000000       0.00000000       0.00000000 </v>
   <v>       0.00000000       0.00000000       0.00000000 </v>
   <v>       0.00000000       0.00000000       0.00000000 </v>
   <v>       0.00000000       0.00000000       0.00000000 </v>
   <v>       0.00000000       0.00000000       0.00000000 </v>
   <v>       0.00000000       0.00000000       0.00000000 </v>
   <v>       0.00000000       0.00000000       0.00000000 </v>
   <v>       0.00000000       0.00000000       0.00000000 </v>
   <v>       0.00000000       0.00000000       0.00000000 </v>
   <v>       0.00000000       0.00000000       0.00000000 </v>
   <v>       0.00000000       0.00000000       0.00000000 </v>
   <v>       0.00000000       0.00000000       0.00000000 </v>
   <v>       0.00000000       0.00000000       0.00000000 </v>
   <v>       0.00000000       0.00000000       0.00000000 </v>
   <v>       0.00000000       0.00000000       0.00000000 </v>
   <v>       0.00000000       0.00000000       0.00000000 </v>
   <v>       0.00000000       0.00000000       0.00000000 </v>
   <v>       0.00000000       0.00000000       0.00000000 </v>
   <v>       0.00000000       0.00000000       0.00000000 </v>
   <v>       0.00000000       0.00000000       0.00000000 </v>
   <v>       0.00000000       0.00000000       0.00000000 </v>
   <v>       0.00000000       0.00000000       0.00000000 </v>
   <v>       0.00000000       0.00000000       0.00000000 </v>
   <v>       0.00000000       0.00000000       0.00000000 </v>
   <v>      -0.00186397       0.07984571      -0.00186397 </v>
   <v>       0.00186397      -0.07984571      -0.00186397 </v>
   <v>      -0.00186397       0.07984571      -0.00186397 </v>
   <v>       0.00186397      -0.07984571      -0.00186397 </v>
   <v>       0.00186397      -0.07984571       0.00186397 </v>
   <v>      -0.00186397       0.07984571       0.00186397 </v>
   <v>       0.00186397      -0.07984571       0.00186397 </v>
   <v>      -0.00186397       0.07984571       0.00186397 </v>
   <v>       0.00186397       0.07984571      -0.00186397 </v>
   <v>       0.00186397       0.07984571      -0.00186397 </v>
   <v>      -0.00186397      -0.07984571      -0.00186397 </v>
   <v>      -0.00186397      -0.07984571      -0.00186397 </v>
   <v>       0.00186397       0.07984571       0.00186397 </v>
   <v>      -0.00186397      -0.07984571       0.00186397 </v>
   <v>       0.00186397       0.07984571       0.00186397 </v>
   <v>      -0.00186397      -0.07984571       0.00186397 </v>
   <v>      -0.00186397       0.07984571      -0.00186397 </v>
   <v>       0.00186397      -0.07984571      -0.00186397 </v>
   <v>      -0.00186397       0.07984571      -0.00186397 </v>
   <v>       0.00186397      -0.07984571      -0.00186397 </v>
   <v>      -0.00186397       0.07984571       0.00186397 </v>
   <v>      -0.00186397       0.07984571       0.00186397 </v>
   <v>       0.00186397      -0.07984571       0.00186397 </v>
   <v>       0.00186397      -0.07984571       0.00186397 </v>
   <v>      -0.00186397      -0.07984571      -0.00186397 </v>
   <v>       0.00186397       0.07984571      -0.00186397 </v>
   <v>      -0.00186397      -0.07984571      -0.00186397 </v>
   <v>       0.00186397       0.07984571      -0.00186397 </v>
   <v>      -0.00186397      -0.07984571       0.00186397 </v>
   <v>       0.00186397       0.07984571       0.00186397 </v>
   <v>      -0.00186397      -0.07984571       0.00186397 </v>
   <v>       0.00186397       0.07984571       0.00186397 </v>
  </varray>
  <varray name="stress" >
   <v>     -25.12008717       0.00000000       0.00000000 </v>
   <v>       0.00000000     -77.15050207       0.00000000 </v>
   <v>       0.00000000       0.00000000     -25.12008717 </v>
  </varray>
  <energy>
   <i name="e_fr_energy">   -449.77411629 </i>
   <i name="e_wo_entrp">   -449.77411629 </i>
   <i name="e_0_energy">      0.00000000 </i>
  </energy>
  <kpoints>
   <generation param="Monkhorst-Pack">
    <v type="int" name="divisions">       3        3        3 </v>
    <v name="usershift">      0.00000000       0.00000000       0.00000000 </v>
    <v name="genvec1">      0.33333333       0.00000000       0.00000000 </v>
    <v name="genvec2">      0.00000000       0.33333333       0.00000000 </v>
    <v name="genvec3">      0.00000000       0.00000000       0.33333333 </v>
    <v name="shift">      0.00000000       0.00000000       0.00000000 </v>
   </generation>
   <varray name="kpointlist" >
    <v>       0.00000000       0.00000000       0.00000000 </v>
    <v>       0.33333333       0.00000000       0.00000000 </v>
    <v>       0.00000000       0.33333333       0.00000000 </v>
    <v>       0.33333333       0.33333333       0.00000000 </v>
    <v>       0.33333333       0.00000000       0.33333333 </v>
    <v>       0.33333333       0.33333333       0.33333333 </v>
   </varray>
   <varray name="weights" >
    <v>       0.03703704 </v>
    <v>       0.14814815 </v>
    <v>       0.07407407 </v>
    <v>       0.29629630 </v>
    <v>       0.14814815 </v>
    <v>       0.29629630 </v>
   </varray>
  </kpoints>
  <time name="totalsc">   88.45   88.95</time>
 </calculation>
 <calculation>
  <scstep>
[...]
       <r>    -8.5072     0.0000     6.0000 </r>
       <r>    -8.4056     0.0000     6.0000 </r>
       <r>    -8.3041     8.5016     6.8632 </r>
       <r>    -8.2026     0.0000     6.8889 </r>
       <r>    -8.1010     0.0000     6.8889 </r>
       <r>    -7.9995     4.3471     7.3303 </r>
       <r>    -7.8980    17.5090     9.1111 </r>
       <r>    -7.7964     0.0000     9.1111 </r>
       <r>    -7.6949    17.4278    10.8806 </r>
       <r>    -7.5934     8.7519    11.7778 </r>
       <r>    -7.4918     0.0000    11.7778 </r>
       <r>    -7.3903     0.0000    11.7778 </r>
       <r>    -7.2888    17.8130    13.5864 </r>
       <r>    -7.1872     0.0000    14.1481 </r>
       <r>    -7.0857     3.3708    14.4904 </r>
       <r>    -6.9842     6.1676    15.2188 </r>
       <r>    -6.8826     0.0000    15.4815 </r>
       <r>    -6.7811     8.7545    16.3704 </r>
       <r>    -6.6796     0.0660    16.3771 </r>
       <r>    -6.5780    21.8822    19.9259 </r>
       <r>    -6.4765     4.3771    20.3704 </r>
       <r>    -6.3749     4.2178    20.7986 </r>
       <r>    -6.2734     0.0000    22.2222 </r>
       <r>    -6.1719     8.7545    23.1111 </r>
       <r>    -6.0703     4.3807    23.5559 </r>
       <r>    -5.9688    22.0317    25.7929 </r>
       <r>    -5.8673     4.3774    26.8148 </r>
       <r>    -5.7657    21.8861    29.0370 </r>
       <r>    -5.6642     3.1375    29.3556 </r>
       <r>    -5.5627    32.6283    33.6833 </r>
       <r>    -5.4611     8.6749    35.6956 </r>
       <r>    -5.3596     1.7391    36.1025 </r>
       <r>    -5.2581     0.7019    37.1824 </r>
       <r>    -5.1565    26.2627    41.5555 </r>
       <r>    -5.0550    17.5092    43.3334 </r>
       <r>    -4.9535     9.4378    44.2916 </r>
       <r>    -4.8519    24.3660    48.0295 </r>
       <r>    -4.7504     0.2898    49.1405 </r>
       <r>    -4.6489    52.5143    56.2213 </r>
       <r>    -4.5473     8.7545    57.1111 </r>
       <r>    -4.4458    19.6995    59.1113 </r>
       <r>    -4.3443    34.9977    62.6648 </r>
       <r>    -4.2427     8.7547    63.5556 </r>
       <r>    -4.1412     4.3771    64.0000 </r>
       <r>    -4.0396     0.0000    64.0000 </r>
       <r>    -3.9381     0.0000    64.0000 </r>
       <r>    -3.8366     0.0000    64.0000 </r>
       <r>    -3.7350     0.0000    64.0000 </r>
       <r>    -3.6335     0.0000    64.0000 </r>
       <r>    -3.5320     0.0000    64.0000 </r>
       <r>    -3.4304     0.0000    64.0000 </r>
       <r>    -3.3289     0.0000    64.0000 </r>
       <r>    -3.2274     0.0000    64.0000 </r>
       <r>    -3.1258     0.0000    64.0000 </r>
       <r>    -3.0243     0.0000    64.0000 </r>
       <r>    -2.9228     0.0000    64.0000 </r>
       <r>    -2.8212     0.0000    64.0000 </r>
       <r>    -2.7197     0.0000    64.0000 </r>
       <r>    -2.6182     0.0000    64.0000 </r>
       <r>    -2.5166     0.0000    64.0000 </r>
       <r>    -2.4151     0.0000    64.0000 </r>
       <r>    -2.3136     0.0000    64.0000 </r>
       <r>    -2.2120     0.0000    64.0000 </r>
       <r>    -2.1105     0.0000    64.0000 </r>
       <r>    -2.0089     0.0000    64.0000 </r>
       <r>    -1.9074     0.0000    64.0000 </r>
       <r>    -1.8059     0.0000    64.0000 </r>
       <r>    -1.7043     0.0000    64.0000 </r>
       <r>    -1.6028     0.0000    64.0000 </r>
       <r>    -1.5013     0.0000    64.0000 </r>
       <r>    -1.3997     0.0000    64.0000 </r>
       <r>    -1.2982     0.7295    64.0741 </r>
       <r>    -1.1967     0.0000    64.0741 </r>
       <r>    -1.0951     0.0000    64.0741 </r>
       <r>    -0.9936     0.0000    64.0741 </r>
       <r>    -0.8921     0.0000    64.0741 </r>
       <r>    -0.7905     4.3754    64.5183 </r>
       <r>    -0.6890     0.0000    64.5185 </r>
       <r>    -0.5875     0.0000    64.5185 </r>
       <r>    -0.4859     8.7545    65.4074 </r>
       <r>    -0.3844     0.0000    65.4074 </r>
       <r>    -0.2829     0.7299    65.4815 </r>
       <r>    -0.1813     5.8359    66.0741 </r>
       <r>    -0.0798     0.0000    66.0741 </r>
       <r>     0.0217     4.3060    66.5113 </r>
       <r>     0.1233     0.0000    66.5185 </r>
       <r>     0.2248     0.0305    66.5216 </r>
       <r>     0.3264     0.0021    66.7410 </r>
       <r>     0.4279    29.7735    69.7640 </r>
       <r>     0.5294     4.3773    71.6296 </r>
       <r>     0.6310    16.8264    73.3381 </r>
       <r>     0.7325    18.9669    75.3333 </r>
       <r>     0.8340     6.7943    76.0232 </r>
       <r>     0.9356     0.0000    77.5556 </r>
       <r>     1.0371    29.1817    80.5185 </r>
       <r>     1.1386     0.3683    80.5559 </r>
       <r>     1.2402     0.0000    81.4074 </r>
       <r>     1.3417    17.4491    83.1791 </r>
       <r>     1.4432    10.1167    84.2124 </r>
       <r>     1.5448     0.0000    85.8519 </r>
       <r>     1.6463    33.3344    89.2365 </r>
       <r>     1.7478    17.5090    92.9630 </r>
       <r>     1.8494     0.0000    92.9630 </r>
       <r>     1.9509    10.2134    94.0000 </r>
       <r>     2.0524    25.7049    96.6099 </r>
       <r>     2.1540     8.7555    98.4445 </r>
       <r>     2.2555     5.8312    99.0370 </r>
       <r>     2.3570     0.0000    99.0370 </r>
       <r>     2.4586    34.8925   102.5798 </r>
       <r>     2.5601     0.0000   102.5926 </r>
       <r>     2.6617    20.3920   104.6631 </r>
       <r>     2.7632    21.8797   106.8887 </r>
       <r>     2.8647     0.0000   106.8889 </r>
       <r>     2.9663    60.7338   113.0555 </r>
       <r>     3.0678    26.2635   115.7778 </r>
       <r>     3.1693    17.3916   117.5436 </r>
       <r>     3.2709     4.3773   118.0000 </r>
       <r>     3.3724     8.7453   118.8879 </r>
       <r>     3.4739    17.5090   120.6667 </r>
       <r>     3.5755    17.4007   122.4334 </r>
       <r>     3.6770    23.3438   124.8146 </r>
       <r>     3.7785    17.5090   126.5926 </r>
       <r>     3.8801     8.7545   127.4815 </r>
       <r>     3.9816    17.5090   129.2593 </r>
       <r>     4.0831     0.0000   129.2593 </r>
       <r>     4.1847    31.5640   132.4641 </r>
       <r>     4.2862     0.3663   133.7409 </r>
       <r>     4.3877    10.1040   136.5074 </r>
       <r>     4.4893     8.7463   138.1481 </r>
       <r>     4.5908    25.9823   140.7863 </r>
       <r>     4.6924    16.3850   142.4785 </r>
       <r>     4.7939    34.8374   146.8705 </r>
       <r>     4.8954     8.7545   147.7778 </r>
       <r>     4.9970     9.0370   148.6953 </r>
       <r>     5.0985    26.2620   151.5556 </r>
       <r>     5.2000    18.2902   153.4126 </r>
       <r>     5.3016     0.0000   153.7778 </r>
       <r>     5.4031    16.1886   155.4215 </r>
       <r>     5.5046    52.0590   161.8798 </r>
       <r>     5.6062    17.4025   163.6929 </r>
       <r>     5.7077     0.0005   163.7038 </r>
       <r>     5.8092    43.7266   168.1435 </r>
       <r>     5.9108     0.0000   168.1481 </r>
       <r>     6.0123    24.7689   170.6631 </r>
       <r>     6.1138    47.3927   175.9231 </r>
       <r>     6.2154     4.3773   176.4444 </r>
       <r>     6.3169    35.0181   180.0000 </r>
       <r>     6.4184    17.5090   181.7778 </r>
       <r>     6.5200    16.3699   183.4399 </r>
       <r>     6.6215    14.1622   184.9935 </r>
       <r>     6.7230    17.5420   188.4478 </r>
       <r>     6.8246    27.9412   192.1703 </r>
       <r>     6.9261    17.5090   194.0000 </r>
       <r>     7.0277    28.5738   196.9012 </r>
       <r>     7.1292    44.3263   202.0562 </r>
       <r>     7.2307    16.8984   203.8639 </r>
       <r>     7.3323     9.0765   205.5142 </r>
       <r>     7.4338    38.5727   211.1757 </r>
       <r>     7.5353     8.4386   212.4124 </r>
       <r>     7.6369     8.9782   213.3560 </r>
       <r>     7.7384    38.6355   217.7006 </r>
       <r>     7.8399     1.6445   218.3892 </r>
       <r>     7.9415    42.1206   224.2767 </r>
       <r>     8.0430    13.1318   226.6667 </r>
       <r>     8.1445    22.1658   228.9173 </r>
       <r>     8.2461     5.4540   229.8871 </r>
       <r>     8.3476     5.0595   230.7359 </r>
       <r>     8.4491    38.7831   236.0860 </r>
       <r>     8.5507    58.2312   242.5051 </r>
       <r>     8.6522    42.3137   246.8148 </r>
       <r>     8.7537    19.3329   248.7778 </r>
       <r>     8.8553    15.3398   250.5946 </r>
       <r>     8.9568    18.0013   253.9759 </r>
       <r>     9.0584     0.4824   254.9379 </r>
       <r>     9.1599     8.7545   256.0000 </r>
       <r>     9.2614     0.0000   256.0000 </r>
       <r>     9.3630     0.0000   256.0000 </r>
       <r>     9.4645     0.0000   256.0000 </r>
       <r>     9.5660     0.0000   256.0000 </r>
       <r>     9.6676     0.0000   256.0000 </r>
       <r>     9.7691     0.0000   256.0000 </r>
       <r>     9.8706     0.0000   256.0000 </r>
       <r>     9.9722     0.0000   256.0000 </r>
       <r>    10.0737     0.0000   256.0000 </r>
       <r>    10.1752     0.0000   256.0000 </r>
       <r>    10.2768     0.0000   256.0000 </r>
       <r>    10.3783     0.0000   256.0000 </r>
       <r>    10.4798     0.0000   256.0000 </r>
       <r>    10.5814     0.0000   256.0000 </r>
       <r>    10.6829     0.0000   256.0000 </r>
       <r>    10.7844     0.0000   256.0000 </r>
       <r>    10.8860     0.0000   256.0000 </r>
       <r>    10.9875     0.0000   256.0000 </r>
       <r>    11.0890     0.0000   256.0000 </r>
       <r>    11.1906     0.0000   256.0000 </r>
       <r>    11.2921     0.0000   256.0000 </r>
       <r>    11.3937     0.0000   256.0000 </r>
       <r>    11.4952     0.0000   256.0000 </r>
       <r>    11.5967     0.0000   256.0000 </r>
       <r>    11.6983     0.0000   256.0000 </r>
       <r>    11.7998     0.0000   256.0000 </r>
       <r>    11.9013     0.0000   256.0000 </r>
       <r>    12.0029     0.0000   256.0000 </r>
       <r>    12.1044     0.0000   256.0000 </r>
       <r>    12.2059     0.0000   256.0000 </r>
       <r>    12.3075     0.0000   256.0000 </r>
       <r>    12.4090     0.0001   256.0000 </r>
       <r>    12.5105     2.1886   256.2222 </r>
       <r>    12.6121     0.0000   256.2222 </r>
       <r>    12.7136     0.0000   256.2222 </r>
       <r>    12.8151     0.0000   256.2222 </r>
       <r>    12.9167     4.2300   256.6517 </r>
       <r>    13.0182     0.0000   256.6667 </r>
       <r>    13.1197     0.0000   256.6667 </r>
       <r>    13.2213     6.2850   257.3048 </r>
       <r>    13.3228     0.0000   257.5556 </r>
       <r>    13.4244     0.0001   257.5556 </r>
       <r>    13.5259     9.1217   258.4817 </r>
       <r>    13.6274     0.0000   259.9259 </r>
       <r>    13.7290     8.5086   260.7898 </r>
       <r>    13.8305     0.0000   260.8148 </r>
       <r>    13.9320     0.0000   260.8148 </r>
       <r>    14.0336    12.4022   262.0741 </r>
       <r>    14.1351     0.0000   262.0741 </r>
       <r>    14.2366     4.2289   262.5035 </r>
       <r>    14.3382     0.0000   262.5185 </r>
       <r>    14.4397     0.3261   262.5516 </r>
       <r>    14.5412     0.0001   264.2963 </r>
       <r>    14.6428     4.6106   264.7644 </r>
       <r>    14.7443     0.0000   266.5185 </r>
       <r>    14.8458    17.5090   268.2963 </r>
       <r>    14.9474    15.0026   269.8196 </r>
       <r>    15.0489    17.5098   271.8519 </r>
       <r>    15.1504    18.2491   273.7049 </r>
       <r>    15.2520    17.5090   276.3704 </r>
       <r>    15.3535     0.0000   276.3704 </r>
       <r>    15.4550     0.0000   276.3704 </r>
       <r>    15.5566     4.3769   276.8148 </r>
       <r>    15.6581    14.9736   278.3352 </r>
       <r>    15.7597    24.0657   281.1842 </r>
       <r>    15.8612     5.8307   283.3333 </r>
       <r>    15.9627    18.2090   285.1822 </r>
       <r>    16.0643    12.8981   287.3845 </r>
       <r>    16.1658    15.2011   288.9509 </r>
       <r>    16.2673     8.7545   290.0741 </r>
       <r>    16.3689    17.5090   291.8519 </r>
       <r>    16.4704     0.0000   291.8519 </r>
       <r>    16.5719    21.8823   294.0737 </r>
       <r>    16.6735    18.4918   295.9516 </r>
       <r>    16.7750    19.4634   297.9762 </r>
       <r>    16.8765    19.1575   300.7603 </r>
       <r>    16.9781    16.9904   302.6881 </r>
       <r>    17.0796    32.1187   307.3352 </r>
       <r>    17.1811    28.3120   310.6524 </r>
       <r>    17.2827     4.3773   311.7778 </r>
       <r>    17.3842     0.0000   311.7778 </r>
       <r>    17.4857     8.8403   312.6754 </r>
       <r>    17.5873    19.8307   316.0145 </r>
       <r>    17.6888     0.0001   316.2222 </r>
       <r>    17.7903    20.8526   318.3395 </r>
       <r>    17.8919     8.7544   319.7778 </r>
       <r>    17.9934     0.0000   319.7778 </r>
       <r>    18.0950     2.1886   320.0000 </r>
       <r>    18.1965     0.0000   320.0000 </r>
       <r>    18.2980     0.0000   320.0000 </r>
       <r>    18.3996     0.0000   320.0000 </r>
       <r>    18.5011     0.0000   320.0000 </r>
       <r>    18.6026     0.0000   320.0000 </r>
       <r>    18.7042     0.0000   320.0000 </r>
       <r>    18.8057     0.0000   320.0000 </r>
       <r>    18.9072     0.0000   320.0000 </r>
       <r>    19.0088     0.0000   320.0000 </r>
       <r>    19.1103     0.0000   320.0000 </r>
       <r>    19.2118     0.0000   320.0000 </r>
       <r>    19.3134     0.0000   320.0000 </r>
       <r>    19.4149     0.0000   320.0000 </r>
      </set>
     </set>
    </array>
   </total>
  </dos>
 </calculation>
 <structure name="finalpos" >
  <crystal>
   <varray name="basis" >
    <v>       7.78676319       0.00000000       0.00000000 </v>
    <v>       0.00000000       7.78676319       0.00000000 </v>
    <v>       0.00000000       0.00000000       7.78676319 </v>
   </varray>
   <i name="volume">    472.14011517 </i>
   <varray name="rec_basis" >
    <v>       0.12842307       0.00000000       0.00000000 </v>
    <v>       0.00000000       0.12842307       0.00000000 </v>
    <v>       0.00000000       0.00000000       0.12842307 </v>
   </varray>
  </crystal>
  <varray name="positions" >
   <v>       0.12500002       0.87500015       0.87500015 </v>
   <v>       0.87500015       0.12500002       0.87500015 </v>
   <v>       0.62500010       0.37500006       0.87500015 </v>
   <v>       0.37500006       0.62500010       0.87500015 </v>
   <v>       0.75000012       0.75000012       0.75000012 </v>
   <v>       0.25000004       0.25000004       0.75000012 </v>
   <v>       0.62500010       0.12500002       0.62500010 </v>
   <v>       0.37500006       0.87500015       0.62500010 </v>
   <v>       0.12500002       0.62500010       0.62500010 </v>
   <v>       0.87500015       0.37500006       0.62500010 </v>
   <v>       0.00000000       0.00000000       0.50000008 </v>
   <v>       0.50000008       0.50000008       0.50000008 </v>
   <v>       0.87500015       0.62500010       0.37500006 </v>
   <v>       0.12500002       0.37500006       0.37500006 </v>
   <v>       0.37500006       0.12500002       0.37500006 </v>
   <v>       0.62500010       0.87500015       0.37500006 </v>
   <v>       0.25000004       0.75000012       0.25000004 </v>
   <v>       0.75000012       0.25000004       0.25000004 </v>
   <v>       0.12500002       0.12500002       0.12500002 </v>
   <v>       0.37500006       0.37500006       0.12500002 </v>
   <v>       0.62500010       0.62500010       0.12500002 </v>
   <v>       0.87500015       0.87500015       0.12500002 </v>
   <v>       0.50000008       0.00000000       0.00000000 </v>
   <v>       0.00000000       0.50000008       0.00000000 </v>
   <v>       0.88051098       0.88243733       0.88243733 </v>
   <v>       0.61756292       0.61756292       0.88243733 </v>
   <v>       0.38243724       0.38243724       0.88243733 </v>
   <v>       0.11756284       0.11756284       0.88243733 </v>
   <v>       0.36756288       0.86756296       0.86756296 </v>
   <v>       0.13243720       0.63243729       0.86756296 </v>
   <v>       0.86756296       0.36756288       0.86756296 </v>
   <v>       0.63243729       0.13243720       0.86756296 </v>
   <v>       0.86756296       0.13243720       0.63243729 </v>
   <v>       0.36756288       0.63243729       0.63243729 </v>
   <v>       0.63243729       0.36756288       0.63243729 </v>
   <v>       0.13243720       0.86756296       0.63243729 </v>
   <v>       0.11756284       0.38243724       0.61756292 </v>
   <v>       0.88243733       0.61756292       0.61756292 </v>
   <v>       0.61756292       0.88243733       0.61756292 </v>
   <v>       0.38243724       0.11756284       0.61756292 </v>
   <v>       0.38243724       0.88243733       0.38243724 </v>
   <v>       0.61756292       0.11756284       0.38243724 </v>
   <v>       0.88243733       0.38243724       0.38243724 </v>
   <v>       0.11756284       0.61756292       0.38243724 </v>
   <v>       0.63243729       0.63243729       0.36756288 </v>
   <v>       0.13243720       0.13243720       0.36756288 </v>
   <v>       0.36756288       0.36756288       0.36756288 </v>
   <v>       0.86756296       0.86756296       0.36756288 </v>
   <v>       0.13243720       0.36756288       0.13243720 </v>
   <v>       0.36756288       0.13243720       0.13243720 </v>
   <v>       0.63243729       0.86756296       0.13243720 </v>
   <v>       0.86756296       0.63243729       0.13243720 </v>
   <v>       0.88243733       0.11756284       0.11756284 </v>
   <v>       0.11756284       0.88243733       0.11756284 </v>
   <v>       0.38243724       0.61756292       0.11756284 </v>
   <v>       0.61756292       0.38243724       0.11756284 </v>
  </varray>
  <varray name="selective"  type="logical" >
   <v type="logical" >  T  T  T </v>
   <v type="logical" >  T  T  T </v>
   <v type="logical" >  T  T  T </v>
   <v type="logical" >  T  T  T </v>
   <v type="logical" >  T  T  T </v>
   <v type="logical" >  T  T  T </v>
   <v type="logical" >  T  T  T </v>
   <v type="logical" >  T  T  T </v>
   <v type="logical" >  T  T  T </v>
   <v type="logical" >  T  T  T </v>
   <v type="logical" >  T  T  T </v>
   <v type="logical" >  T  T  T </v>
   <v type="logical" >  T  T  T </v>
   <v type="logical" >  T  T  T </v>
   <v type="logical" >  T  T  T </v>
   <v type="logical" >  T  T  T </v>
   <v type="logical" >  T  T  T </v>
   <v type="logical" >  T  T  T </v>
   <v type="logical" >  T  T  T </v>
   <v type="logical" >  T  T  T </v>
   <v type="logical" >  T  T  T </v>
   <v type="logical" >  T  T  T </v>
   <v type="logical" >  T  T  T </v>
   <v type="logical" >  T  T  T </v>
   <v type="logical" >  T  T  T </v>
   <v type="logical" >  T  T  T </v>
   <v type="logical" >  T  T  T </v>
   <v type="logical" >  T  T  T </v>
   <v type="logical" >  T  T  T </v>
   <v type="logical" >  T  T  T </v>
   <v type="logical" >  T  T  T </v>
   <v type="logical" >  T  T  T </v>
   <v type="logical" >  T  T  T </v>
   <v type="logical" >  T  T  T </v>
   <v type="logical" >  T  T  T </v>
   <v type="logical" >  T  T  T </v>
   <v type="logical" >  T  T  T </v>
   <v type="logical" >  T  T  T </v>
   <v type="logical" >  T  T  T </v>
   <v type="logical" >  T  T  T </v>
   <v type="logical" >  T  T  T </v>
   <v type="logical" >  T  T  T </v>
   <v type="logical" >  T  T  T </v>
   <v type="logical" >  T  T  T </v>
   <v type="logical" >  T  T  T </v>
   <v type="logical" >  T  T  T </v>
   <v type="logical" >  T  T  T </v>
   <v type="logical" >  T  T  T </v>
   <v type="logical" >  T  T  T </v>
   <v type="logical" >  T  T  T </v>
   <v type="logical" >  T  T  T </v>
   <v type="logical" >  T  T  T </v>
   <v type="logical" >  T  T  T </v>
   <v type="logical" >  T  T  T </v>
   <v type="logical" >  T  T  T </v>
   <v type="logical" >  T  T  T </v>
  </varray>
  <nose>
   <v>      -3.00000000       0.00000000       0.00010000       0.00010000 </v>
  </nose>
 </structure>
</modeling>
