  14  14   0   0
  0.1061422E+02  0.7659514E-09  0.7659514E-09  0.2924712E-09  0.5000000E-15
  1.000000000000000E-004
  CAR 
 POSCAR (VASP)                           
     17.89051681    -12.87304633  301      6.63617996      1.00000000
    -12.873  0.0000E+00  0.0000E+00
    -12.771  0.0000E+00  0.0000E+00
    -12.668  0.0000E+00  0.0000E+00
    -12.565  0.0000E+00  0.0000E+00
    -12.463  0.0000E+00  0.0000E+00
    -12.360  0.0000E+00  0.0000E+00
    -12.258  0.0000E+00  0.0000E+00
    -12.155  0.0000E+00  0.0000E+00
    -12.053  0.0000E+00  0.0000E+00
    -11.950  0.0000E+00  0.0000E+00
    -11.848  0.0000E+00  0.0000E+00
    -11.745  0.0000E+00  0.0000E+00
    -11.643  0.0000E+00  0.0000E+00
    -11.540  0.0000E+00  0.0000E+00
    -11.437  0.3047E+00  0.3125E-01
    -11.335  0.1616E+01  0.1969E+00
    -11.232  0.0000E+00  0.2188E+00
    -11.130  0.1515E-02  0.2189E+00
    -11.027  0.2342E+01  0.4901E+00
    -10.925  0.1828E+01  0.7188E+00
    -10.822  0.9142E+00  0.8125E+00
    -10.720  0.1826E+01  0.9998E+00
    -10.617  0.2705E+01  0.1277E+01
    -10.515  0.2649E+01  0.1553E+01
    -10.412  0.3043E+00  0.1594E+01
    -10.309  0.3516E+01  0.1954E+01
    -10.207  0.1177E+01  0.2277E+01
    -10.104  0.2178E+01  0.2661E+01
    -10.002  0.3352E+01  0.3156E+01
     -9.899  0.2272E-01  0.3159E+01
     -9.797  0.2635E+01  0.3614E+01
     -9.694  0.4159E+01  0.4051E+01
     -9.592  0.1705E-03  0.4063E+01
     -9.489  0.5099E+01  0.4585E+01
     -9.387  0.2133E+01  0.5156E+01
     -9.284  0.4068E+01  0.5573E+01
     -9.181  0.3948E+01  0.5999E+01
     -9.079  0.6316E+01  0.6710E+01
     -8.976  0.3352E+01  0.7062E+01
     -8.874  0.2585E+01  0.7328E+01
     -8.771  0.7704E+01  0.8134E+01
     -8.669  0.1832E+01  0.8344E+01
     -8.566  0.6352E+01  0.9089E+01
     -8.464  0.5929E+01  0.9733E+01
     -8.361  0.2822E+01  0.1016E+02
     -8.259  0.5846E+01  0.1094E+02
     -8.156  0.7313E+01  0.1172E+02
     -8.053  0.2619E+01  0.1199E+02
     -7.951  0.7405E+01  0.1298E+02
     -7.848  0.1453E+02  0.1480E+02
     -7.746  0.9447E+01  0.1600E+02
     -7.643  0.0000E+00  0.1600E+02
     -7.541  0.0000E+00  0.1600E+02
     -7.438  0.0000E+00  0.1600E+02
     -7.336  0.0000E+00  0.1600E+02
     -7.233  0.0000E+00  0.1600E+02
     -7.131  0.0000E+00  0.1600E+02
     -7.028  0.0000E+00  0.1600E+02
     -6.925  0.0000E+00  0.1600E+02
     -6.823  0.0000E+00  0.1600E+02
     -6.720  0.0000E+00  0.1600E+02
     -6.618  0.0000E+00  0.1600E+02
     -6.515  0.0000E+00  0.1600E+02
     -6.413  0.0000E+00  0.1600E+02
     -6.310  0.0000E+00  0.1600E+02
     -6.208  0.0000E+00  0.1600E+02
     -6.105  0.0000E+00  0.1600E+02
     -6.003  0.0000E+00  0.1600E+02
     -5.900  0.0000E+00  0.1600E+02
     -5.797  0.0000E+00  0.1600E+02
     -5.695  0.0000E+00  0.1600E+02
     -5.592  0.0000E+00  0.1600E+02
     -5.490  0.0000E+00  0.1600E+02
     -5.387  0.0000E+00  0.1600E+02
     -5.285  0.0000E+00  0.1600E+02
     -5.182  0.0000E+00  0.1600E+02
     -5.080  0.0000E+00  0.1600E+02
     -4.977  0.0000E+00  0.1600E+02
     -4.875  0.0000E+00  0.1600E+02
     -4.772  0.0000E+00  0.1600E+02
     -4.669  0.0000E+00  0.1600E+02
     -4.567  0.0000E+00  0.1600E+02
     -4.464  0.0000E+00  0.1600E+02
     -4.362  0.0000E+00  0.1600E+02
     -4.259  0.0000E+00  0.1600E+02
     -4.157  0.0000E+00  0.1600E+02
     -4.054  0.0000E+00  0.1600E+02
     -3.952  0.0000E+00  0.1600E+02
     -3.849  0.0000E+00  0.1600E+02
     -3.747  0.0000E+00  0.1600E+02
     -3.644  0.0000E+00  0.1600E+02
     -3.541  0.0000E+00  0.1600E+02
     -3.439  0.0000E+00  0.1600E+02
     -3.336  0.0000E+00  0.1600E+02
     -3.234  0.0000E+00  0.1600E+02
     -3.131  0.0000E+00  0.1600E+02
     -3.029  0.1118E-07  0.1600E+02
     -2.926  0.2734E+01  0.1628E+02
     -2.824  0.0000E+00  0.1628E+02
     -2.721  0.3794E-04  0.1628E+02
     -2.619  0.5948E+01  0.1689E+02
     -2.516  0.1826E+01  0.1709E+02
     -2.413  0.4519E+01  0.1756E+02
     -2.311  0.3058E+01  0.1797E+02
     -2.208  0.4571E+01  0.1856E+02
     -2.106  0.6749E+01  0.1925E+02
     -2.003  0.1935E+01  0.1979E+02
     -1.901  0.4231E+00  0.1989E+02
     -1.798  0.5311E+01  0.2067E+02
     -1.696  0.1828E+01  0.2088E+02
     -1.593  0.1828E+01  0.2106E+02
     -1.491  0.4140E+01  0.2149E+02
     -1.388  0.2034E+01  0.2177E+02
     -1.285  0.2570E+01  0.2220E+02
     -1.183  0.5711E+01  0.2299E+02
     -1.080  0.3707E+00  0.2338E+02
     -0.978  0.3047E+00  0.2359E+02
     -0.875  0.1204E+01  0.2372E+02
     -0.773  0.2137E+01  0.2400E+02
     -0.670  0.4570E+01  0.2450E+02
     -0.568  0.2682E+01  0.2477E+02
     -0.465  0.2438E+01  0.2503E+02
     -0.363  0.2743E+01  0.2531E+02
     -0.260  0.7360E+01  0.2607E+02
     -0.157  0.1057E+01  0.2630E+02
     -0.055  0.2740E+01  0.2684E+02
      0.048  0.3657E+01  0.2722E+02
      0.150  0.5613E+00  0.2728E+02
      0.253  0.3159E+01  0.2764E+02
      0.355  0.5482E+01  0.2834E+02
      0.458  0.6074E+01  0.2897E+02
      0.560  0.3976E+01  0.2953E+02
      0.663  0.3501E+01  0.3002E+02
      0.765  0.1245E+01  0.3016E+02
      0.868  0.8733E+01  0.3121E+02
      0.971  0.5484E+00  0.3168E+02
      1.073  0.4273E+01  0.3244E+02
      1.176  0.1828E+01  0.3281E+02
      1.278  0.4304E+01  0.3325E+02
      1.381  0.9644E+01  0.3430E+02
      1.483  0.3374E+01  0.3469E+02
      1.586  0.6531E+01  0.3570E+02
      1.688  0.7108E+01  0.3651E+02
      1.791  0.6406E+01  0.3725E+02
      1.893  0.1272E+02  0.3859E+02
      1.996  0.7576E+01  0.3962E+02
      2.099  0.8401E+01  0.4074E+02
      2.201  0.2848E+01  0.4110E+02
      2.304  0.4046E+01  0.4170E+02
      2.406  0.7528E+01  0.4262E+02
      2.509  0.1285E+01  0.4285E+02
      2.611  0.8377E+01  0.4411E+02
      2.714  0.9142E+00  0.4450E+02
      2.816  0.1828E+01  0.4469E+02
      2.919  0.2784E+01  0.4497E+02
      3.021  0.5485E+01  0.4572E+02
      3.124  0.3653E+01  0.4609E+02
      3.227  0.5881E+01  0.4688E+02
      3.329  0.8113E+01  0.4796E+02
      3.432  0.6107E+00  0.4803E+02
      3.534  0.6330E+01  0.4868E+02
      3.637  0.7636E+01  0.4947E+02
      3.739  0.3026E+01  0.5015E+02
      3.842  0.4318E+01  0.5066E+02
      3.944  0.3047E+01  0.5109E+02
      4.047  0.1389E+00  0.5111E+02
      4.149  0.1824E+01  0.5137E+02
      4.252  0.1831E+01  0.5156E+02
      4.355  0.0000E+00  0.5175E+02
      4.457  0.1545E+01  0.5191E+02
      4.560  0.1601E+01  0.5210E+02
      4.662  0.5980E+01  0.5321E+02
      4.765  0.4710E+01  0.5383E+02
      4.867  0.3651E+01  0.5469E+02
      4.970  0.9908E+01  0.5605E+02
      5.072  0.5124E+01  0.5687E+02
      5.175  0.1140E+01  0.5734E+02
      5.277  0.1356E+02  0.5895E+02
      5.380  0.9101E+01  0.5990E+02
      5.483  0.2679E+01  0.6024E+02
      5.585  0.9150E+00  0.6063E+02
      5.688  0.7415E+01  0.6148E+02
      5.790  0.2743E+01  0.6178E+02
      5.893  0.1555E+01  0.6194E+02
      5.995  0.6004E+00  0.6231E+02
      6.098  0.2743E+01  0.6278E+02
      6.200  0.4540E+01  0.6325E+02
      6.303  0.2743E+01  0.6353E+02
      6.405  0.3962E+01  0.6394E+02
      6.508  0.3047E+00  0.6397E+02
      6.611  0.3047E+00  0.6400E+02
      6.713  0.0000E+00  0.6400E+02
      6.816  0.0000E+00  0.6400E+02
      6.918  0.0000E+00  0.6400E+02
      7.021  0.0000E+00  0.6400E+02
      7.123  0.0000E+00  0.6400E+02
      7.226  0.0000E+00  0.6400E+02
      7.328  0.0000E+00  0.6400E+02
      7.431  0.0000E+00  0.6400E+02
      7.533  0.0000E+00  0.6400E+02
      7.636  0.0000E+00  0.6400E+02
      7.739  0.0000E+00  0.6400E+02
      7.841  0.0000E+00  0.6400E+02
      7.944  0.0000E+00  0.6400E+02
      8.046  0.0000E+00  0.6400E+02
      8.149  0.0000E+00  0.6400E+02
      8.251  0.0000E+00  0.6400E+02
      8.354  0.0000E+00  0.6400E+02
      8.456  0.0000E+00  0.6400E+02
      8.559  0.0000E+00  0.6400E+02
      8.661  0.0000E+00  0.6400E+02
      8.764  0.0000E+00  0.6400E+02
      8.867  0.0000E+00  0.6400E+02
      8.969  0.0000E+00  0.6400E+02
      9.072  0.0000E+00  0.6400E+02
      9.174  0.0000E+00  0.6400E+02
      9.277  0.0000E+00  0.6400E+02
      9.379  0.0000E+00  0.6400E+02
      9.482  0.0000E+00  0.6400E+02
      9.584  0.0000E+00  0.6400E+02
      9.687  0.0000E+00  0.6400E+02
      9.789  0.0000E+00  0.6400E+02
      9.892  0.0000E+00  0.6400E+02
      9.995  0.0000E+00  0.6400E+02
     10.097  0.0000E+00  0.6400E+02
     10.200  0.0000E+00  0.6400E+02
     10.302  0.0000E+00  0.6400E+02
     10.405  0.0000E+00  0.6400E+02
     10.507  0.0000E+00  0.6400E+02
     10.610  0.0000E+00  0.6400E+02
     10.712  0.0000E+00  0.6400E+02
     10.815  0.0000E+00  0.6400E+02
     10.917  0.0000E+00  0.6400E+02
     11.020  0.0000E+00  0.6400E+02
     11.123  0.4043E+00  0.6404E+02
     11.225  0.1836E+01  0.6438E+02
     11.328  0.2581E+01  0.6483E+02
     11.430  0.3791E+01  0.6526E+02
     11.533  0.7767E+01  0.6623E+02
     11.635  0.6868E+01  0.6724E+02
     11.738  0.2441E+01  0.6750E+02
     11.840  0.1246E+01  0.6782E+02
     11.943  0.6196E+01  0.6876E+02
     12.045  0.2941E+01  0.6908E+02
     12.148  0.1896E+01  0.6935E+02
     12.251  0.4385E+01  0.6998E+02
     12.353  0.3714E+01  0.7076E+02
     12.456  0.4678E+01  0.7132E+02
     12.558  0.4909E+01  0.7191E+02
     12.661  0.3019E+01  0.7240E+02
     12.763  0.5155E+01  0.7334E+02
     12.866  0.3776E+01  0.7376E+02
     12.968  0.3975E+01  0.7435E+02
     13.071  0.6095E+00  0.7491E+02
     13.173  0.8305E+01  0.7576E+02
     13.276  0.7314E+01  0.7669E+02
     13.379  0.3885E+01  0.7709E+02
     13.481  0.4913E+01  0.7785E+02
     13.584  0.4281E+01  0.7835E+02
     13.686  0.5777E+01  0.7912E+02
     13.789  0.2754E+01  0.7941E+02
     13.891  0.6562E+01  0.8036E+02
     13.994  0.7829E+01  0.8140E+02
     14.096  0.5722E+01  0.8202E+02
     14.199  0.4394E+01  0.8270E+02
     14.301  0.8718E+01  0.8361E+02
     14.404  0.7639E+01  0.8478E+02
     14.507  0.3675E+01  0.8519E+02
     14.609  0.5502E+01  0.8594E+02
     14.712  0.2133E+01  0.8625E+02
     14.814  0.3766E+01  0.8664E+02
     14.917  0.5324E+01  0.8723E+02
     15.019  0.3596E+01  0.8762E+02
     15.122  0.3450E+01  0.8826E+02
     15.224  0.2962E+01  0.8874E+02
     15.327  0.2175E+01  0.8897E+02
     15.429  0.5480E+01  0.8981E+02
     15.532  0.3296E+01  0.9034E+02
     15.635  0.4985E+01  0.9107E+02
     15.737  0.1193E+02  0.9241E+02
     15.840  0.2254E+01  0.9286E+02
     15.942  0.7228E+01  0.9387E+02
     16.045  0.5467E+01  0.9444E+02
     16.147  0.4266E+01  0.9488E+02
     16.250  0.2479E+01  0.9513E+02
     16.352  0.5383E+01  0.9580E+02
     16.455  0.1224E-06  0.9581E+02
     16.557  0.1828E+01  0.9600E+02
     16.660  0.0000E+00  0.9600E+02
     16.763  0.0000E+00  0.9600E+02
     16.865  0.0000E+00  0.9600E+02
     16.968  0.0000E+00  0.9600E+02
     17.070  0.0000E+00  0.9600E+02
     17.173  0.0000E+00  0.9600E+02
     17.275  0.0000E+00  0.9600E+02
     17.378  0.0000E+00  0.9600E+02
     17.480  0.0000E+00  0.9600E+02
     17.583  0.0000E+00  0.9600E+02
     17.685  0.0000E+00  0.9600E+02
     17.788  0.0000E+00  0.9600E+02
     17.891  0.0000E+00  0.9600E+02
