   14   14    1    1
  0.1061422E+02  0.7659514E-09  0.7659514E-09  0.2924712E-09  0.5000000E-15
  1.000000000000000E-004
  CAR 
 POSCAR (VASP)                           
     64     16     48
 
  0.0000000E+00  0.0000000E+00  0.6250000E-01  0.1562500E-01
    1      -11.474703   1.000000
    2      -10.058176   1.000000
    3      -10.058144   1.000000
    4       -9.435660   1.000000
    5       -9.294398   1.000000
    6       -9.294359   1.000000
    7       -8.096989   1.000000
    8       -7.809069   1.000000
    9       -1.479757   1.000000
   10       -1.478720   1.000000
   11       -1.377447   1.000000
   12       -0.725409   1.000000
   13       -0.723614   1.000000
   14        0.817504   1.000000
   15        0.817716   1.000000
   16        1.691695   1.000000
   17        1.805321   1.000000
   18        2.407265   1.000000
   19        2.413904   1.000000
   20        2.507720   1.000000
   21        2.509976   1.000000
   22        3.212730   1.000000
   23        3.216767   1.000000
   24        3.242475   1.000000
   25        3.616342   1.000000
   26        5.022741   1.000000
   27        5.022990   1.000000
   28        5.305799   1.000000
   29        5.306533   1.000000
   30        5.939996   1.000000
   31        5.985506   1.000000
   32        6.465573   1.000000
   33       11.117870   0.000000
   34       11.339518   0.000000
   35       11.579107   0.000000
   36       11.579172   0.000000
   37       11.815118   0.000000
   38       11.815135   0.000000
   39       12.484225   0.000000
   40       13.903459   0.000000
   41       14.372969   0.000000
   42       14.384248   0.000000
   43       15.274429   0.000000
   44       15.901991   0.000000
   45       15.909836   0.000000
   46       15.924665   0.000000
   47       15.925561   0.000000
   48       16.082451   0.000000
 
  0.2500000E+00  0.0000000E+00  0.6250000E-01  0.9375000E-01
    1      -11.343306   1.000000
    2      -10.384445   1.000000
    3      -10.148874   1.000000
    4       -9.755387   1.000000
    5       -9.096221   1.000000
    6       -8.699424   1.000000
    7       -8.069950   1.000000
    8       -7.910332   1.000000
    9       -2.468797   1.000000
   10       -1.847058   1.000000
   11       -1.207682   1.000000
   12       -0.280586   1.000000
   13        0.018410   1.000000
   14        0.886848   1.000000
   15        0.988564   1.000000
   16        1.830259   1.000000
   17        1.900489   1.000000
   18        2.328460   1.000000
   19        2.363952   1.000000
   20        2.540818   1.000000
   21        2.614284   1.000000
   22        3.188106   1.000000
   23        3.239561   1.000000
   24        3.297080   1.000000
   25        3.599118   1.000000
   26        4.588461   1.000000
   27        4.912320   1.000000
   28        4.992361   1.000000
   29        5.263219   1.000000
   30        5.895636   1.000000
   31        6.050509   1.000000
   32        6.344292   1.000000
   33       11.243865   0.000000
   34       11.430922   0.000000
   35       11.615454   0.000000
   36       11.672296   0.000000
   37       11.916010   0.000000
   38       12.126308   0.000000
   39       12.708098   0.000000
   40       13.823865   0.000000
   41       14.057519   0.000000
   42       14.274646   0.000000
   43       14.907057   0.000000
   44       15.247604   0.000000
   45       15.726296   0.000000
   46       15.930096   0.000000
   47       16.106856   0.000000
   48       16.294468   0.000000
 
  0.5000000E+00  0.0000000E+00  0.6250000E-01  0.4687500E-01
    1      -11.028322   1.000000
    2      -10.875604   1.000000
    3      -10.217905   1.000000
    4       -9.805120   1.000000
    5       -8.880441   1.000000
    6       -8.414320   1.000000
    7       -8.053956   1.000000
    8       -8.008757   1.000000
    9       -2.942814   1.000000
   10       -2.063269   1.000000
   11       -1.344120   1.000000
   12       -0.074586   1.000000
   13        0.787861   1.000000
   14        0.811438   1.000000
   15        1.328076   1.000000
   16        1.753744   1.000000
   17        2.054681   1.000000
   18        2.227667   1.000000
   19        2.287444   1.000000
   20        2.486003   1.000000
   21        3.044461   1.000000
   22        3.114597   1.000000
   23        3.320988   1.000000
   24        3.473916   1.000000
   25        3.560764   1.000000
   26        3.847133   1.000000
   27        4.618467   1.000000
   28        4.888059   1.000000
   29        5.263892   1.000000
   30        5.752656   1.000000
   31        6.129635   1.000000
   32        6.237722   1.000000
   33       11.279474   0.000000
   34       11.435311   0.000000
   35       11.625401   0.000000
   36       11.913539   0.000000
   37       12.410393   0.000000
   38       12.529452   0.000000
   39       12.698695   0.000000
   40       13.198991   0.000000
   41       13.975864   0.000000
   42       14.329278   0.000000
   43       14.620892   0.000000
   44       15.006270   0.000000
   45       15.686840   0.000000
   46       15.847769   0.000000
   47       16.069291   0.000000
   48       16.268062   0.000000
 
  0.2500000E+00  0.2500000E+00  0.6250000E-01  0.9375000E-01
    1      -11.091319   1.000000
    2      -10.631469   1.000000
    3      -10.546921   1.000000
    4       -9.501616   1.000000
    5       -9.101971   1.000000
    6       -8.378081   1.000000
    7       -8.037118   1.000000
    8       -7.993254   1.000000
    9       -2.988426   1.000000
   10       -1.894412   1.000000
   11       -1.500123   1.000000
   12       -0.111822   1.000000
   13        0.801652   1.000000
   14        1.100324   1.000000
   15        1.226594   1.000000
   16        1.678718   1.000000
   17        2.053672   1.000000
   18        2.077068   1.000000
   19        2.375054   1.000000
   20        2.393308   1.000000
   21        2.998131   1.000000
   22        3.179782   1.000000
   23        3.263995   1.000000
   24        3.454264   1.000000
   25        3.612518   1.000000
   26        4.216249   1.000000
   27        4.273230   1.000000
   28        5.082127   1.000000
   29        5.220503   1.000000
   30        5.679009   1.000000
   31        6.129383   1.000000
   32        6.230511   1.000000
   33       11.369112   0.000000
   34       11.517252   0.000000
   35       11.526886   0.000000
   36       12.005532   0.000000
   37       12.265975   0.000000
   38       12.431271   0.000000
   39       12.673080   0.000000
   40       13.477599   0.000000
   41       13.615258   0.000000
   42       14.396806   0.000000
   43       14.853367   0.000000
   44       15.009073   0.000000
   45       15.552358   0.000000
   46       15.858332   0.000000
   47       16.024393   0.000000
   48       16.182855   0.000000
 
  0.0000000E+00  0.0000000E+00  0.1875000E+00  0.1562500E-01
    1      -11.111550   1.000000
    2       -9.735160   1.000000
    3       -9.735051   1.000000
    4       -9.191874   1.000000
    5       -9.023088   1.000000
    6       -9.022955   1.000000
    7       -7.966721   1.000000
    8       -7.779098   1.000000
    9       -1.517527   1.000000
   10       -1.513980   1.000000
   11       -1.147350   1.000000
   12       -0.755804   1.000000
   13       -0.749320   1.000000
   14        0.576048   1.000000
   15        0.875047   1.000000
   16        0.875078   1.000000
   17        1.506925   1.000000
   18        1.518789   1.000000
   19        1.525470   1.000000
   20        1.689854   1.000000
   21        1.696650   1.000000
   22        2.601507   1.000000
   23        2.988003   1.000000
   24        3.156425   1.000000
   25        3.159130   1.000000
   26        4.946890   1.000000
   27        4.947376   1.000000
   28        4.956598   1.000000
   29        5.309971   1.000000
   30        5.311184   1.000000
   31        5.319547   1.000000
   32        6.564279   1.000000
   33       12.394398   0.000000
   34       12.424293   0.000000
   35       12.432182   0.000000
   36       12.931779   0.000000
   37       12.932108   0.000000
   38       13.021139   0.000000
   39       13.043693   0.000000
   40       13.946512   0.000000
   41       14.003058   0.000000
   42       14.020199   0.000000
   43       14.735119   0.000000
   44       14.756117   0.000000
   45       15.199481   0.000000
   46       15.653471   0.000000
   47       15.658962   0.000000
   48       15.777078   0.000000
 
  0.2500000E+00  0.0000000E+00  0.1875000E+00  0.9375000E-01
    1      -10.984308   1.000000
    2      -10.052217   1.000000
    3       -9.820186   1.000000
    4       -9.476630   1.000000
    5       -8.841176   1.000000
    6       -8.480355   1.000000
    7       -7.947647   1.000000
    8       -7.862522   1.000000
    9       -2.244555   1.000000
   10       -1.809632   1.000000
   11       -1.067631   1.000000
   12       -0.435593   1.000000
   13       -0.139875   1.000000
   14        0.411271   1.000000
   15        0.815978   1.000000
   16        1.026534   1.000000
   17        1.365299   1.000000
   18        1.501843   1.000000
   19        1.622975   1.000000
   20        1.850363   1.000000
   21        1.964208   1.000000
   22        2.560299   1.000000
   23        3.105545   1.000000
   24        3.135736   1.000000
   25        3.255250   1.000000
   26        4.551997   1.000000
   27        4.770523   1.000000
   28        4.888119   1.000000
   29        5.252863   1.000000
   30        5.351586   1.000000
   31        5.496046   1.000000
   32        6.341571   1.000000
   33       12.160541   0.000000
   34       12.330262   0.000000
   35       12.572977   0.000000
   36       12.853717   0.000000
   37       12.926285   0.000000
   38       13.122793   0.000000
   39       13.231352   0.000000
   40       13.873034   0.000000
   41       14.090597   0.000000
   42       14.246500   0.000000
   43       14.584270   0.000000
   44       14.658145   0.000000
   45       15.103216   0.000000
   46       15.407198   0.000000
   47       15.628928   0.000000
   48       15.904313   0.000000
 
  0.5000000E+00  0.0000000E+00  0.1875000E+00  0.4687500E-01
    1      -10.684128   1.000000
    2      -10.523467   1.000000
    3       -9.885257   1.000000
    4       -9.520203   1.000000
    5       -8.641668   1.000000
    6       -8.219315   1.000000
    7       -7.961339   1.000000
    8       -7.922862   1.000000
    9       -2.639832   1.000000
   10       -2.002361   1.000000
   11       -1.164515   1.000000
   12       -0.246144   1.000000
   13        0.408510   1.000000
   14        0.416755   1.000000
   15        0.751328   1.000000
   16        0.823125   1.000000
   17        1.327891   1.000000
   18        1.715101   1.000000
   19        1.718199   1.000000
   20        1.820075   1.000000
   21        2.255496   1.000000
   22        2.599256   1.000000
   23        2.947004   1.000000
   24        3.222162   1.000000
   25        3.572715   1.000000
   26        4.054184   1.000000
   27        4.616386   1.000000
   28        4.766507   1.000000
   29        5.268111   1.000000
   30        5.383938   1.000000
   31        5.657844   1.000000
   32        6.031712   1.000000
   33       11.937495   0.000000
   34       12.181541   0.000000
   35       12.680023   0.000000
   36       12.760746   0.000000
   37       13.128415   0.000000
   38       13.229713   0.000000
   39       13.399837   0.000000
   40       13.769903   0.000000
   41       14.245620   0.000000
   42       14.316506   0.000000
   43       14.352820   0.000000
   44       14.766546   0.000000
   45       15.070949   0.000000
   46       15.436300   0.000000
   47       15.672844   0.000000
   48       15.887887   0.000000
 
  0.2500000E+00  0.2500000E+00  0.1875000E+00  0.9375000E-01
    1      -10.741264   1.000000
    2      -10.299337   1.000000
    3      -10.200220   1.000000
    4       -9.225837   1.000000
    5       -8.847619   1.000000
    6       -8.192930   1.000000
    7       -7.941625   1.000000
    8       -7.907881   1.000000
    9       -2.692087   1.000000
   10       -1.810289   1.000000
   11       -1.384267   1.000000
   12       -0.158720   1.000000
   13        0.387846   1.000000
   14        0.525097   1.000000
   15        0.653229   1.000000
   16        0.974377   1.000000
   17        1.091553   1.000000
   18        1.665104   1.000000
   19        1.879757   1.000000
   20        1.962396   1.000000
   21        2.068450   1.000000
   22        2.619751   1.000000
   23        2.882465   1.000000
   24        3.281829   1.000000
   25        3.521241   1.000000
   26        4.129471   1.000000
   27        4.449914   1.000000
   28        5.079728   1.000000
   29        5.216721   1.000000
   30        5.316974   1.000000
   31        5.627531   1.000000
   32        6.012013   1.000000
   33       11.915578   0.000000
   34       12.312931   0.000000
   35       12.505903   0.000000
   36       12.843484   0.000000
   37       13.099657   0.000000
   38       13.304664   0.000000
   39       13.459500   0.000000
   40       13.850690   0.000000
   41       13.940638   0.000000
   42       14.280729   0.000000
   43       14.523069   0.000000
   44       14.531475   0.000000
   45       15.031688   0.000000
   46       15.526008   0.000000
   47       15.669751   0.000000
   48       16.027642   0.000000
 
  0.0000000E+00  0.0000000E+00  0.3125000E+00  0.1562500E-01
    1      -10.432566   1.000000
    2       -9.165532   1.000000
    3       -9.165306   1.000000
    4       -8.821713   1.000000
    5       -8.597642   1.000000
    6       -8.597360   1.000000
    7       -7.857327   1.000000
    8       -7.804380   1.000000
    9       -2.036061   1.000000
   10       -2.031234   1.000000
   11       -1.412333   1.000000
   12       -1.404998   1.000000
   13       -0.819821   1.000000
   14       -0.534611   1.000000
   15        0.532774   1.000000
   16        0.855937   1.000000
   17        0.856123   1.000000
   18        1.044103   1.000000
   19        1.054275   1.000000
   20        1.435292   1.000000
   21        1.629584   1.000000
   22        1.639776   1.000000
   23        2.976402   1.000000
   24        2.979732   1.000000
   25        3.180974   1.000000
   26        3.923459   1.000000
   27        4.777074   1.000000
   28        4.885962   1.000000
   29        4.887576   1.000000
   30        5.180442   1.000000
   31        5.182427   1.000000
   32        6.328170   1.000000
   33       11.673047   0.000000
   34       11.689520   0.000000
   35       12.648378   0.000000
   36       12.661861   0.000000
   37       13.517631   0.000000
   38       13.633790   0.000000
   39       13.845675   0.000000
   40       14.300736   0.000000
   41       14.315549   0.000000
   42       14.348062   0.000000
   43       14.361940   0.000000
   44       14.674881   0.000000
   45       15.202543   0.000000
   46       15.212235   0.000000
   47       15.219298   0.000000
   48       15.606052   0.000000
 
  0.2500000E+00  0.0000000E+00  0.3125000E+00  0.9375000E-01
    1      -10.316631   1.000000
    2       -9.459931   1.000000
    3       -9.236211   1.000000
    4       -9.016678   1.000000
    5       -8.462702   1.000000
    6       -8.180153   1.000000
    7       -7.905107   1.000000
    8       -7.804443   1.000000
    9       -2.178178   1.000000
   10       -2.157081   1.000000
   11       -1.283737   1.000000
   12       -1.226506   1.000000
   13       -0.878139   1.000000
   14       -0.580581   1.000000
   15        0.258019   1.000000
   16        0.464996   1.000000
   17        0.607504   1.000000
   18        1.311533   1.000000
   19        1.448794   1.000000
   20        1.554070   1.000000
   21        1.724154   1.000000
   22        1.828765   1.000000
   23        2.777476   1.000000
   24        2.977982   1.000000
   25        3.515785   1.000000
   26        3.918501   1.000000
   27        4.578925   1.000000
   28        4.831181   1.000000
   29        4.920885   1.000000
   30        5.185686   1.000000
   31        5.320496   1.000000
   32        6.185420   1.000000
   33       11.585860   0.000000
   34       11.843133   0.000000
   35       12.486101   0.000000
   36       12.694499   0.000000
   37       12.974966   0.000000
   38       13.512564   0.000000
   39       13.730302   0.000000
   40       13.901098   0.000000
   41       14.113369   0.000000
   42       14.308318   0.000000
   43       14.779230   0.000000
   44       15.018911   0.000000
   45       15.132928   0.000000
   46       15.343514   0.000000
   47       15.665003   0.000000
   48       15.701361   0.000000
 
  0.5000000E+00  0.0000000E+00  0.3125000E+00  0.4687500E-01
    1      -10.054989   1.000000
    2       -9.876965   1.000000
    3       -9.290705   1.000000
    4       -9.043280   1.000000
    5       -8.316959   1.000000
    6       -7.985019   1.000000
    7       -7.893266   1.000000
    8       -7.859204   1.000000
    9       -2.274358   1.000000
   10       -2.236872   1.000000
   11       -1.360012   1.000000
   12       -1.176658   1.000000
   13       -0.640367   1.000000
   14       -0.334136   1.000000
   15       -0.317393   1.000000
   16        0.202715   1.000000
   17        0.576559   1.000000
   18        1.340388   1.000000
   19        1.593106   1.000000
   20        1.669983   1.000000
   21        1.914244   1.000000
   22        2.127073   1.000000
   23        2.646340   1.000000
   24        2.905681   1.000000
   25        3.723764   1.000000
   26        3.896052   1.000000
   27        4.574247   1.000000
   28        4.589831   1.000000
   29        4.965859   1.000000
   30        5.227178   1.000000
   31        5.625817   1.000000
   32        5.874520   1.000000
   33       11.409952   0.000000
   34       11.875105   0.000000
   35       12.363852   0.000000
   36       12.441690   0.000000
   37       12.915856   0.000000
   38       13.659665   0.000000
   39       13.804534   0.000000
   40       14.057569   0.000000
   41       14.079261   0.000000
   42       14.319670   0.000000
   43       14.343599   0.000000
   44       14.815008   0.000000
   45       15.340356   0.000000
   46       15.561434   0.000000
   47       15.679101   0.000000
   48       15.917765   0.000000
 
  0.2500000E+00  0.2500000E+00  0.3125000E+00  0.9375000E-01
    1      -10.098148   1.000000
    2       -9.705204   1.000000
    3       -9.564871   1.000000
    4       -8.779552   1.000000
    5       -8.469614   1.000000
    6       -7.983236   1.000000
    7       -7.906877   1.000000
    8       -7.813291   1.000000
    9       -2.335763   1.000000
   10       -2.086717   1.000000
   11       -1.658554   1.000000
   12       -0.823366   1.000000
   13       -0.716283   1.000000
   14       -0.528455   1.000000
   15       -0.008252   1.000000
   16        0.182082   1.000000
   17        0.334615   1.000000
   18        1.330880   1.000000
   19        1.489918   1.000000
   20        1.868460   1.000000
   21        1.993957   1.000000
   22        2.130996   1.000000
   23        2.569158   1.000000
   24        2.931466   1.000000
   25        3.656793   1.000000
   26        3.834782   1.000000
   27        4.579441   1.000000
   28        4.774898   1.000000
   29        4.895196   1.000000
   30        5.303602   1.000000
   31        5.483665   1.000000
   32        5.908613   1.000000
   33       11.622355   0.000000
   34       11.758902   0.000000
   35       12.209785   0.000000
   36       12.594320   0.000000
   37       12.979453   0.000000
   38       13.234615   0.000000
   39       13.600560   0.000000
   40       13.966200   0.000000
   41       14.373594   0.000000
   42       14.456133   0.000000
   43       14.593545   0.000000
   44       14.896512   0.000000
   45       15.199591   0.000000
   46       15.466414   0.000000
   47       15.752414   0.000000
   48       15.800791   0.000000
 
  0.0000000E+00  0.0000000E+00  0.4375000E+00  0.1562500E-01
    1       -9.565093   1.000000
    2       -8.823942   1.000000
    3       -8.564959   1.000000
    4       -8.564573   1.000000
    5       -8.326366   1.000000
    6       -8.325932   1.000000
    7       -7.931682   1.000000
    8       -7.779104   1.000000
    9       -2.626193   1.000000
   10       -2.621552   1.000000
   11       -2.375444   1.000000
   12       -2.370249   1.000000
   13       -1.006384   1.000000
   14       -0.511317   1.000000
   15       -0.250344   1.000000
   16        0.411150   1.000000
   17        1.263220   1.000000
   18        1.267983   1.000000
   19        1.282097   1.000000
   20        1.285353   1.000000
   21        1.859159   1.000000
   22        1.876379   1.000000
   23        2.409697   1.000000
   24        2.420400   1.000000
   25        3.373765   1.000000
   26        3.396096   1.000000
   27        4.896400   1.000000
   28        4.934859   1.000000
   29        4.938947   1.000000
   30        5.019027   1.000000
   31        5.022799   1.000000
   32        5.666727   1.000000
   33       11.121706   0.000000
   34       11.135879   0.000000
   35       11.508814   0.000000
   36       11.522029   0.000000
   37       13.528467   0.000000
   38       13.959440   0.000000
   39       13.974482   0.000000
   40       13.975867   0.000000
   41       13.991593   0.000000
   42       14.057145   0.000000
   43       14.365366   0.000000
   44       15.053593   0.000000
   45       15.100109   0.000000
   46       15.898977   0.000000
   47       15.912957   0.000000
   48       16.100541   0.000000
 
  0.2500000E+00  0.0000000E+00  0.4375000E+00  0.9375000E-01
    1       -9.480764   1.000000
    2       -8.931424   1.000000
    3       -8.632645   1.000000
    4       -8.606860   1.000000
    5       -8.308291   1.000000
    6       -8.266271   1.000000
    7       -7.884966   1.000000
    8       -7.787653   1.000000
    9       -2.640589   1.000000
   10       -2.464106   1.000000
   11       -2.307959   1.000000
   12       -2.109248   1.000000
   13       -1.249883   1.000000
   14       -0.750081   1.000000
   15       -0.328062   1.000000
   16        0.310883   1.000000
   17        0.878571   1.000000
   18        1.047575   1.000000
   19        1.375058   1.000000
   20        1.528923   1.000000
   21        1.876748   1.000000
   22        2.009369   1.000000
   23        2.309157   1.000000
   24        2.525543   1.000000
   25        3.557206   1.000000
   26        3.653610   1.000000
   27        4.718713   1.000000
   28        4.849787   1.000000
   29        4.956224   1.000000
   30        5.063173   1.000000
   31        5.249002   1.000000
   32        5.718359   1.000000
   33       11.164555   0.000000
   34       11.485552   0.000000
   35       11.552539   0.000000
   36       11.861313   0.000000
   37       13.142147   0.000000
   38       13.224058   0.000000
   39       13.452729   0.000000
   40       13.560502   0.000000
   41       13.808941   0.000000
   42       13.966797   0.000000
   43       14.189706   0.000000
   44       14.473389   0.000000
   45       15.430947   0.000000
   46       15.727820   0.000000
   47       15.982008   0.000000
   48       16.330359   0.000000
 
  0.5000000E+00  0.0000000E+00  0.4375000E+00  0.4687500E-01
    1       -9.314978   1.000000
    2       -9.142429   1.000000
    3       -8.650011   1.000000
    4       -8.640820   1.000000
    5       -8.295719   1.000000
    6       -8.230345   1.000000
    7       -7.838708   1.000000
    8       -7.803391   1.000000
    9       -2.646970   1.000000
   10       -2.261696   1.000000
   11       -2.083729   1.000000
   12       -1.891207   1.000000
   13       -1.398899   1.000000
   14       -1.263231   1.000000
   15       -0.414533   1.000000
   16        0.148147   1.000000
   17        0.767562   1.000000
   18        1.221372   1.000000
   19        1.268121   1.000000
   20        1.414509   1.000000
   21        1.935861   1.000000
   22        2.104735   1.000000
   23        2.260937   1.000000
   24        2.586500   1.000000
   25        3.742409   1.000000
   26        3.824687   1.000000
   27        4.633950   1.000000
   28        4.771358   1.000000
   29        4.976067   1.000000
   30        5.151107   1.000000
   31        5.563003   1.000000
   32        5.605788   1.000000
   33       11.143152   0.000000
   34       11.520329   0.000000
   35       12.228183   0.000000
   36       12.260844   0.000000
   37       12.463190   0.000000
   38       13.107341   0.000000
   39       13.169049   0.000000
   40       13.311154   0.000000
   41       13.382375   0.000000
   42       13.623220   0.000000
   43       13.888021   0.000000
   44       14.138280   0.000000
   45       15.386209   0.000000
   46       15.633691   0.000000
   47       16.082067   0.000000
   48       16.245955   0.000000
 
  0.2500000E+00  0.2500000E+00  0.4375000E+00  0.9375000E-01
    1       -9.332398   1.000000
    2       -9.091424   1.000000
    3       -8.799321   1.000000
    4       -8.489047   1.000000
    5       -8.349528   1.000000
    6       -8.204863   1.000000
    7       -7.844740   1.000000
    8       -7.805939   1.000000
    9       -2.537522   1.000000
   10       -2.412933   1.000000
   11       -2.142020   1.000000
   12       -1.759794   1.000000
   13       -1.524224   1.000000
   14       -1.169255   1.000000
   15       -0.329693   1.000000
   16        0.293510   1.000000
   17        0.490626   1.000000
   18        0.798042   1.000000
   19        1.567060   1.000000
   20        1.765106   1.000000
   21        1.943228   1.000000
   22        2.031377   1.000000
   23        2.212232   1.000000
   24        2.522078   1.000000
   25        3.719278   1.000000
   26        3.832259   1.000000
   27        4.666501   1.000000
   28        4.736490   1.000000
   29        5.035215   1.000000
   30        5.207529   1.000000
   31        5.417305   1.000000
   32        5.644310   1.000000
   33       11.318393   0.000000
   34       11.529752   0.000000
   35       12.043495   0.000000
   36       12.253292   0.000000
   37       12.662932   0.000000
   38       12.874481   0.000000
   39       12.977101   0.000000
   40       13.180021   0.000000
   41       13.378922   0.000000
   42       13.668801   0.000000
   43       14.130219   0.000000
   44       14.266561   0.000000
   45       15.358544   0.000000
   46       15.559857   0.000000
   47       16.341029   0.000000
   48       16.492173   0.000000
