Automatically generated mesh
      16
Reciprocal lattice
    0.00000000000000    0.00000000000000    0.06250000000000             2
    0.25000000000000    0.00000000000000    0.06250000000000            12
    0.50000000000000    0.00000000000000    0.06250000000000             6
    0.25000000000000    0.25000000000000    0.06250000000000            12
    0.00000000000000    0.00000000000000    0.18750000000000             2
    0.25000000000000    0.00000000000000    0.18750000000000            12
    0.50000000000000    0.00000000000000    0.18750000000000             6
    0.25000000000000    0.25000000000000    0.18750000000000            12
    0.00000000000000    0.00000000000000    0.31250000000000             2
    0.25000000000000    0.00000000000000    0.31250000000000            12
    0.50000000000000    0.00000000000000    0.31250000000000             6
    0.25000000000000    0.25000000000000    0.31250000000000            12
    0.00000000000000    0.00000000000000    0.43750000000000             2
    0.25000000000000    0.00000000000000    0.43750000000000            12
    0.50000000000000    0.00000000000000    0.43750000000000             6
    0.25000000000000    0.25000000000000    0.43750000000000            12
