 vasp.5.4.1 05Feb16 (build Mar 26 2016 11:58:25) complex                        
  
 executed on           IFC91_ompi date 2016.11.24  20:22:52
 running on   16 total cores
 distrk:  each k-point on   16 cores,    1 groups
 distr:  one band on NCORES_PER_BAND=   1 cores,   16 groups


--------------------------------------------------------------------------------------------------------


 INCAR:
 POTCAR:   PAW_PBE Si 05Jan2001                   
 POTCAR:   PAW_PBE N 08Apr2002                    

 ----------------------------------------------------------------------------- 
|                                                                             |
|           W    W    AA    RRRRR   N    N  II  N    N   GGGG   !!!           |
|           W    W   A  A   R    R  NN   N  II  NN   N  G    G  !!!           |
|           W    W  A    A  R    R  N N  N  II  N N  N  G       !!!           |
|           W WW W  AAAAAA  RRRRR   N  N N  II  N  N N  G  GGG   !            |
|           WW  WW  A    A  R   R   N   NN  II  N   NN  G    G                |
|           W    W  A    A  R    R  N    N  II  N    N   GGGG   !!!           |
|                                                                             |
|      For optimal performance we recommend to set                            |
|        NCORE= 4 - approx SQRT( number of cores)                             |
|      NCORE specifies how many cores store one orbital (NPAR=cpu/NCORE).     |
|      This setting can  greatly improve the performance of VASP for DFT.     |
|      The default, NPAR=number of cores might be grossly inefficient         |
|      on modern multi-core architectures or massively parallel machines.     |
|      Do your own testing !!!!                                               |
|      Unfortunately you need to use the default for GW and RPA calculations. |
|      (for HF NCORE is supported but not extensively tested yet)             |
|                                                                             |
 ----------------------------------------------------------------------------- 

 POTCAR:   PAW_PBE Si 05Jan2001                   
   VRHFIN =Si: s2p2                                                             
   LEXCH  = PE                                                                  
   EATOM  =   103.0669 eV,    7.5752 Ry                                         
                                                                                
   TITEL  = PAW_PBE Si 05Jan2001                                                
   LULTRA =        F    use ultrasoft PP ?                                      
   IUNSCR =        1    unscreen: 0-lin 1-nonlin 2-no                           
   RPACOR =    1.500    partial core radius                                     
   POMASS =   28.085; ZVAL   =    4.000    mass and valenz                      
   RCORE  =    1.900    outmost cutoff radius                                   
   RWIGS  =    2.480; RWIGS  =    1.312    wigner-seitz radius (au A)           
   ENMAX  =  245.345; ENMIN  =  184.009 eV                                      
   ICORE  =        2    local potential                                         
   LCOR   =        T    correct aug charges                                     
   LPAW   =        T    paw PP                                                  
   EAUG   =  322.069                                                            
   DEXC   =    -.007                                                            
   RMAX   =    2.944    core radius for proj-oper                               
   RAUG   =    1.300    factor for augmentation sphere                          
   RDEP   =    1.993    radius for radial grids                                 
   QCUT   =   -4.246; QGAM   =    8.493    optimization parameters              
                                                                                
   Description                                                                  
     l     E      TYP  RCUT    TYP  RCUT                                        
     0   .000     23  1.900                                                     
     0   .000     23  1.900                                                     
     1   .000     23  1.900                                                     
     1   .000     23  1.900                                                     
     2   .000      7  1.900                                                     
  local pseudopotential read in
  partial core-charges read in
  atomic valenz-charges read in
  non local Contribution for L=           0  read in
    real space projection operators read in
  non local Contribution for L=           0  read in
    real space projection operators read in
  non local Contribution for L=           1  read in
    real space projection operators read in
  non local Contribution for L=           1  read in
    real space projection operators read in
    PAW grid and wavefunctions read in
 
   number of l-projection  operators is LMAX  =           4
   number of lm-projection operators is LMMAX =           8
 
 POTCAR:   PAW_PBE N 08Apr2002                    
   VRHFIN =N: s2p3                                                              
   LEXCH  = PE                                                                  
   EATOM  =   264.5486 eV,   19.4438 Ry                                         
                                                                                
   TITEL  = PAW_PBE N 08Apr2002                                                 
   LULTRA =        F    use ultrasoft PP ?                                      
   IUNSCR =        0    unscreen: 0-lin 1-nonlin 2-no                           
   RPACOR =     .000    partial core radius                                     
   POMASS =   14.001; ZVAL   =    5.000    mass and valenz                      
   RCORE  =    1.500    outmost cutoff radius                                   
   RWIGS  =    1.400; RWIGS  =     .741    wigner-seitz radius (au A)           
   ENMAX  =  400.000; ENMIN  =  300.000 eV                                      
   ICORE  =        2    local potential                                         
   LCOR   =        T    correct aug charges                                     
   LPAW   =        T    paw PP                                                  
   EAUG   =  627.112                                                            
   DEXC   =     .000                                                            
   RMAX   =    2.247    core radius for proj-oper                               
   RAUG   =    1.300    factor for augmentation sphere                          
   RDEP   =    1.514    radius for radial grids                                 
   QCUT   =   -5.562; QGAM   =   11.124    optimization parameters              
                                                                                
   Description                                                                  
     l     E      TYP  RCUT    TYP  RCUT                                        
     0   .000     23  1.200                                                     
     0   .000     23  1.200                                                     
     1   .000     23  1.500                                                     
     1   .700     23  1.500                                                     
     2   .000      7  1.500                                                     
  local pseudopotential read in
  atomic valenz-charges read in
  non local Contribution for L=           0  read in
    real space projection operators read in
  non local Contribution for L=           0  read in
    real space projection operators read in
  non local Contribution for L=           1  read in
    real space projection operators read in
  non local Contribution for L=           1  read in
    real space projection operators read in
    PAW grid and wavefunctions read in
 
   number of l-projection  operators is LMAX  =           4
   number of lm-projection operators is LMMAX =           8
 
 PAW_PBE Si 05Jan2001                   :
 energy of atom  1       EATOM= -103.0669
 kinetic energy error for atom=    0.0006 (will be added to EATOM!!)
 PAW_PBE N 08Apr2002                    :
 energy of atom  2       EATOM= -264.5486
 kinetic energy error for atom=    0.0138 (will be added to EATOM!!)
 
 
 POSCAR: Si N                                    
  positions in direct lattice
  velocities in cartesian coordinates
 exchange correlation table for  LEXCH =        8
   RHO(1)=    0.500       N(1)  =     2000
   RHO(2)=  100.500       N(2)  =     4000
 


--------------------------------------------------------------------------------------------------------


 ion  position               nearest neighbor table
   1  0.175  0.406  0.750-  10 1.74   7 1.75  13 1.75  13 1.75   2 3.02   3 3.02   5 3.07   5 3.07
                             6 3.07   6 3.07
   2  0.594  0.769  0.750-  10 1.74   8 1.75  11 1.75  11 1.75   1 3.02   3 3.02   6 3.07   6 3.07
                             4 3.07   4 3.07
   3  0.231  0.825  0.750-  10 1.74   9 1.75  12 1.75  12 1.75   2 3.02   1 3.02   5 3.07   5 3.07
                             4 3.07   4 3.07
   4  0.825  0.594  0.250-  14 1.74  11 1.75   9 1.75   9 1.75   6 3.02   5 3.02   3 3.07   3 3.07
                             2 3.07   2 3.07
   5  0.406  0.231  0.250-  14 1.74  12 1.75   7 1.75   7 1.75   6 3.02   4 3.02   3 3.07   3 3.07
                             1 3.07   1 3.07
   6  0.769  0.175  0.250-  14 1.74  13 1.75   8 1.75   8 1.75   4 3.02   5 3.02   2 3.07   2 3.07
                             1 3.07   1 3.07
   7  0.330  0.299  0.750-   1 1.75   5 1.75   5 1.75
   8  0.701  0.031  0.750-   2 1.75   6 1.75   6 1.75
   9  0.969  0.670  0.750-   3 1.75   4 1.75   4 1.75
  10  0.333  0.667  0.750-   2 1.74   1 1.74   3 1.74
  11  0.670  0.701  0.250-   4 1.75   2 1.75   2 1.75
  12  0.299  0.969  0.250-   5 1.75   3 1.75   3 1.75
  13  0.031  0.330  0.250-   6 1.75   1 1.75   1 1.75
  14  0.667  0.333  0.250-   4 1.74   5 1.74   6 1.74
 
  LATTYP: Found a hexagonal cell.
 ALAT       =     7.6595137796
 C/A-ratio  =     0.3818403798
  
  Lattice vectors:
  
 A1 = (   7.6595137796,   0.0000000000,   0.0000000000)
 A2 = (  -3.8297568898,   6.6333335137,   0.0000000000)
 A3 = (   0.0000000000,   0.0000000000,   2.9247116510)


Analysis of symmetry for initial positions (statically):
=====================================================================
 Subroutine PRICEL returns:
 Original cell was already a primitive cell.
 

 Routine SETGRP: Setting up the symmetry group for a 
 hexagonal supercell.


 Subroutine GETGRP returns: Found 12 space group operations
 (whereof  6 operations were pure point group operations)
 out of a pool of 24 trial point group operations.


The static configuration has the point symmetry S_6 .
 The point group associated with its full space group is C_6h.


Analysis of symmetry for dynamics (positions and initial velocities):
=====================================================================
 Subroutine PRICEL returns:
 Original cell was already a primitive cell.
 

 Routine SETGRP: Setting up the symmetry group for a 
 hexagonal supercell.


 Subroutine GETGRP returns: Found 12 space group operations
 (whereof  6 operations were pure point group operations)
 out of a pool of 24 trial point group operations.


The dynamic configuration has the point symmetry S_6 .
 The point group associated with its full space group is C_6h.


 Subroutine INISYM returns: Found 12 space group operations
 (whereof  6 operations are pure point group operations),
 and found     1 'primitive' translations

 
 
 KPOINTS: Automatic mesh                          

Automatic generation of k-mesh.
Space group operators:
 irot       det(A)        alpha          n_x          n_y          n_z        tau_x        tau_y        tau_z
    1     1.000000     0.000000     1.000000     0.000000     0.000000     0.000000     0.000000     0.000000
    2    -1.000000     0.000000     1.000000     0.000000     0.000000     0.000000     0.000000     0.000000
    3     1.000000   120.000000     0.000000     0.000000    -1.000000     0.000000     0.000000     0.000000
    4    -1.000000   120.000000     0.000000     0.000000    -1.000000     0.000000     0.000000     0.000000
    5     1.000000   120.000000     0.000000     0.000000     1.000000     0.000000     0.000000     0.000000
    6    -1.000000   120.000000     0.000000     0.000000     1.000000     0.000000     0.000000     0.000000
    7     1.000000    60.000000     0.000000     0.000000    -1.000000     0.000000     0.000000     0.500000
    8    -1.000000    60.000000     0.000000     0.000000    -1.000000     0.000000     0.000000     0.500000
    9     1.000000   180.000000     0.000000     0.000000     1.000000     0.000000     0.000000     0.500000
   10    -1.000000   180.000000     0.000000     0.000000     1.000000     0.000000     0.000000     0.500000
   11     1.000000    60.000000     0.000000     0.000000     1.000000     0.000000     0.000000     0.500000
   12    -1.000000    60.000000     0.000000     0.000000     1.000000     0.000000     0.000000     0.500000
 
 Subroutine IBZKPT returns following result:
 ===========================================
 
 Found     16 irreducible k-points:
 
 Following reciprocal coordinates:
            Coordinates               Weight
  0.000000  0.000000  0.062500      2.000000
  0.250000  0.000000  0.062500     12.000000
  0.500000  0.000000  0.062500      6.000000
  0.250000  0.250000  0.062500     12.000000
  0.000000  0.000000  0.187500      2.000000
  0.250000  0.000000  0.187500     12.000000
  0.500000  0.000000  0.187500      6.000000
  0.250000  0.250000  0.187500     12.000000
  0.000000  0.000000  0.312500      2.000000
  0.250000  0.000000  0.312500     12.000000
  0.500000  0.000000  0.312500      6.000000
  0.250000  0.250000  0.312500     12.000000
  0.000000  0.000000  0.437500      2.000000
  0.250000  0.000000  0.437500     12.000000
  0.500000  0.000000  0.437500      6.000000
  0.250000  0.250000  0.437500     12.000000
 
 Following cartesian coordinates:
            Coordinates               Weight
  0.000000  0.000000  0.021370      2.000000
  0.032639  0.018844  0.021370     12.000000
  0.065278  0.037688  0.021370      6.000000
  0.032639  0.056533  0.021370     12.000000
  0.000000  0.000000  0.064109      2.000000
  0.032639  0.018844  0.064109     12.000000
  0.065278  0.037688  0.064109      6.000000
  0.032639  0.056533  0.064109     12.000000
  0.000000  0.000000  0.106848      2.000000
  0.032639  0.018844  0.106848     12.000000
  0.065278  0.037688  0.106848      6.000000
  0.032639  0.056533  0.106848     12.000000
  0.000000  0.000000  0.149587      2.000000
  0.032639  0.018844  0.149587     12.000000
  0.065278  0.037688  0.149587      6.000000
  0.032639  0.056533  0.149587     12.000000
 
 
 Subroutine IBZKPT_HF returns following result:
 ==============================================
 
 Found    128 k-points in 1st BZ
 the following    128 k-points will be used (e.g. in the exchange kernel)
 Following reciprocal coordinates:   # in IRBZ
  0.000000  0.000000  0.062500    0.00781250   1 t-inv F
  0.250000  0.000000  0.062500    0.00781250   2 t-inv F
  0.500000  0.000000  0.062500    0.00781250   3 t-inv F
  0.250000  0.250000  0.062500    0.00781250   4 t-inv F
  0.000000  0.000000  0.187500    0.00781250   5 t-inv F
  0.250000  0.000000  0.187500    0.00781250   6 t-inv F
  0.500000  0.000000  0.187500    0.00781250   7 t-inv F
  0.250000  0.250000  0.187500    0.00781250   8 t-inv F
  0.000000  0.000000  0.312500    0.00781250   9 t-inv F
  0.250000  0.000000  0.312500    0.00781250  10 t-inv F
  0.500000  0.000000  0.312500    0.00781250  11 t-inv F
  0.250000  0.250000  0.312500    0.00781250  12 t-inv F
  0.000000  0.000000  0.437500    0.00781250  13 t-inv F
  0.250000  0.000000  0.437500    0.00781250  14 t-inv F
  0.500000  0.000000  0.437500    0.00781250  15 t-inv F
  0.250000  0.250000  0.437500    0.00781250  16 t-inv F
  0.000000  0.000000 -0.062500    0.00781250   1 t-inv F
 -0.250000  0.000000 -0.062500    0.00781250   2 t-inv F
 -0.250000  0.250000  0.062500    0.00781250   2 t-inv F
  0.250000 -0.250000 -0.062500    0.00781250   2 t-inv F
  0.000000 -0.250000  0.062500    0.00781250   2 t-inv F
  0.000000  0.250000 -0.062500    0.00781250   2 t-inv F
  0.000000  0.250000  0.062500    0.00781250   2 t-inv F
  0.000000 -0.250000 -0.062500    0.00781250   2 t-inv F
 -0.250000  0.000000  0.062500    0.00781250   2 t-inv F
  0.250000  0.000000 -0.062500    0.00781250   2 t-inv F
  0.250000 -0.250000  0.062500    0.00781250   2 t-inv F
 -0.250000  0.250000 -0.062500    0.00781250   2 t-inv F
 -0.500000  0.000000 -0.062500    0.00781250   3 t-inv F
 -0.500000  0.500000  0.062500    0.00781250   3 t-inv F
  0.500000 -0.500000 -0.062500    0.00781250   3 t-inv F
  0.000000 -0.500000  0.062500    0.00781250   3 t-inv F
  0.000000  0.500000 -0.062500    0.00781250   3 t-inv F
 -0.250000 -0.250000 -0.062500    0.00781250   4 t-inv F
 -0.500000  0.250000  0.062500    0.00781250   4 t-inv F
  0.500000 -0.250000 -0.062500    0.00781250   4 t-inv F
  0.250000 -0.500000  0.062500    0.00781250   4 t-inv F
 -0.250000  0.500000 -0.062500    0.00781250   4 t-inv F
 -0.250000  0.500000  0.062500    0.00781250   4 t-inv F
  0.250000 -0.500000 -0.062500    0.00781250   4 t-inv F
 -0.250000 -0.250000  0.062500    0.00781250   4 t-inv F
  0.250000  0.250000 -0.062500    0.00781250   4 t-inv F
  0.500000 -0.250000  0.062500    0.00781250   4 t-inv F
 -0.500000  0.250000 -0.062500    0.00781250   4 t-inv F
  0.000000  0.000000 -0.187500    0.00781250   5 t-inv F
 -0.250000  0.000000 -0.187500    0.00781250   6 t-inv F
 -0.250000  0.250000  0.187500    0.00781250   6 t-inv F
  0.250000 -0.250000 -0.187500    0.00781250   6 t-inv F
  0.000000 -0.250000  0.187500    0.00781250   6 t-inv F
  0.000000  0.250000 -0.187500    0.00781250   6 t-inv F
  0.000000  0.250000  0.187500    0.00781250   6 t-inv F
  0.000000 -0.250000 -0.187500    0.00781250   6 t-inv F
 -0.250000  0.000000  0.187500    0.00781250   6 t-inv F
  0.250000  0.000000 -0.187500    0.00781250   6 t-inv F
  0.250000 -0.250000  0.187500    0.00781250   6 t-inv F
 -0.250000  0.250000 -0.187500    0.00781250   6 t-inv F
 -0.500000  0.000000 -0.187500    0.00781250   7 t-inv F
 -0.500000  0.500000  0.187500    0.00781250   7 t-inv F
  0.500000 -0.500000 -0.187500    0.00781250   7 t-inv F
  0.000000 -0.500000  0.187500    0.00781250   7 t-inv F
  0.000000  0.500000 -0.187500    0.00781250   7 t-inv F
 -0.250000 -0.250000 -0.187500    0.00781250   8 t-inv F
 -0.500000  0.250000  0.187500    0.00781250   8 t-inv F
  0.500000 -0.250000 -0.187500    0.00781250   8 t-inv F
  0.250000 -0.500000  0.187500    0.00781250   8 t-inv F
 -0.250000  0.500000 -0.187500    0.00781250   8 t-inv F
 -0.250000  0.500000  0.187500    0.00781250   8 t-inv F
  0.250000 -0.500000 -0.187500    0.00781250   8 t-inv F
 -0.250000 -0.250000  0.187500    0.00781250   8 t-inv F
  0.250000  0.250000 -0.187500    0.00781250   8 t-inv F
  0.500000 -0.250000  0.187500    0.00781250   8 t-inv F
 -0.500000  0.250000 -0.187500    0.00781250   8 t-inv F
  0.000000  0.000000 -0.312500    0.00781250   9 t-inv F
 -0.250000  0.000000 -0.312500    0.00781250  10 t-inv F
 -0.250000  0.250000  0.312500    0.00781250  10 t-inv F
  0.250000 -0.250000 -0.312500    0.00781250  10 t-inv F
  0.000000 -0.250000  0.312500    0.00781250  10 t-inv F
  0.000000  0.250000 -0.312500    0.00781250  10 t-inv F
  0.000000  0.250000  0.312500    0.00781250  10 t-inv F
  0.000000 -0.250000 -0.312500    0.00781250  10 t-inv F
 -0.250000  0.000000  0.312500    0.00781250  10 t-inv F
  0.250000  0.000000 -0.312500    0.00781250  10 t-inv F
  0.250000 -0.250000  0.312500    0.00781250  10 t-inv F
 -0.250000  0.250000 -0.312500    0.00781250  10 t-inv F
 -0.500000  0.000000 -0.312500    0.00781250  11 t-inv F
 -0.500000  0.500000  0.312500    0.00781250  11 t-inv F
  0.500000 -0.500000 -0.312500    0.00781250  11 t-inv F
  0.000000 -0.500000  0.312500    0.00781250  11 t-inv F
  0.000000  0.500000 -0.312500    0.00781250  11 t-inv F
 -0.250000 -0.250000 -0.312500    0.00781250  12 t-inv F
 -0.500000  0.250000  0.312500    0.00781250  12 t-inv F
  0.500000 -0.250000 -0.312500    0.00781250  12 t-inv F
  0.250000 -0.500000  0.312500    0.00781250  12 t-inv F
 -0.250000  0.500000 -0.312500    0.00781250  12 t-inv F
 -0.250000  0.500000  0.312500    0.00781250  12 t-inv F
  0.250000 -0.500000 -0.312500    0.00781250  12 t-inv F
 -0.250000 -0.250000  0.312500    0.00781250  12 t-inv F
  0.250000  0.250000 -0.312500    0.00781250  12 t-inv F
  0.500000 -0.250000  0.312500    0.00781250  12 t-inv F
 -0.500000  0.250000 -0.312500    0.00781250  12 t-inv F
  0.000000  0.000000 -0.437500    0.00781250  13 t-inv F
 -0.250000  0.000000 -0.437500    0.00781250  14 t-inv F
 -0.250000  0.250000  0.437500    0.00781250  14 t-inv F
  0.250000 -0.250000 -0.437500    0.00781250  14 t-inv F
  0.000000 -0.250000  0.437500    0.00781250  14 t-inv F
  0.000000  0.250000 -0.437500    0.00781250  14 t-inv F
  0.000000  0.250000  0.437500    0.00781250  14 t-inv F
  0.000000 -0.250000 -0.437500    0.00781250  14 t-inv F
 -0.250000  0.000000  0.437500    0.00781250  14 t-inv F
  0.250000  0.000000 -0.437500    0.00781250  14 t-inv F
  0.250000 -0.250000  0.437500    0.00781250  14 t-inv F
 -0.250000  0.250000 -0.437500    0.00781250  14 t-inv F
 -0.500000  0.000000 -0.437500    0.00781250  15 t-inv F
 -0.500000  0.500000  0.437500    0.00781250  15 t-inv F
  0.500000 -0.500000 -0.437500    0.00781250  15 t-inv F
  0.000000 -0.500000  0.437500    0.00781250  15 t-inv F
  0.000000  0.500000 -0.437500    0.00781250  15 t-inv F
 -0.250000 -0.250000 -0.437500    0.00781250  16 t-inv F
 -0.500000  0.250000  0.437500    0.00781250  16 t-inv F
  0.500000 -0.250000 -0.437500    0.00781250  16 t-inv F
  0.250000 -0.500000  0.437500    0.00781250  16 t-inv F
 -0.250000  0.500000 -0.437500    0.00781250  16 t-inv F
 -0.250000  0.500000  0.437500    0.00781250  16 t-inv F
  0.250000 -0.500000 -0.437500    0.00781250  16 t-inv F
 -0.250000 -0.250000  0.437500    0.00781250  16 t-inv F
  0.250000  0.250000 -0.437500    0.00781250  16 t-inv F
  0.500000 -0.250000  0.437500    0.00781250  16 t-inv F
 -0.500000  0.250000 -0.437500    0.00781250  16 t-inv F


--------------------------------------------------------------------------------------------------------




 Dimension of arrays:
   k-points           NKPTS =     16   k-points in BZ     NKDIM =     16   number of bands    NBANDS=     48
   number of dos      NEDOS =    301   number of ions     NIONS =     14
   non local maximal  LDIM  =      4   non local SUM 2l+1 LMDIM =      8
   total plane-waves  NPLWV =  75264
   max r-space proj   IRMAX =      1   max aug-charges    IRDMAX= 135659
   dimension x,y,z NGX =    56 NGY =   56 NGZ =   24
   dimension x,y,z NGXF=   112 NGYF=  112 NGZF=   48
   support grid    NGXF=   224 NGYF=  224 NGZF=   96
   ions per type =               6   8
 NGX,Y,Z   is equivalent  to a cutoff of  12.15, 12.15, 13.64 a.u.
 NGXF,Y,Z  is equivalent  to a cutoff of  24.31, 24.31, 27.28 a.u.


 I would recommend the setting:
   dimension x,y,z NGX =    56 NGY =   56 NGZ =   21
 SYSTEM =  POSCAR (VASP)                           
 POSCAR =  Si N                                    

 Startparameter for this run:
   NWRITE =      2    write-flag & timer
   PREC   = accura    normal or accurate (medium, high low for compatibility)
   ISTART =      0    job   : 0-new  1-cont  2-samecut
   ICHARG =      2    charge: 1-file 2-atom 10-const
   ISPIN  =      1    spin polarized calculation?
   LNONCOLLINEAR =      F non collinear calculations
   LSORBIT =      F    spin-orbit coupling
   INIWAV =      1    electr: 0-lowe 1-rand  2-diag
   LASPH  =      F    aspherical Exc in radial PAW
   METAGGA=      F    non-selfconsistent MetaGGA calc.

 Electronic Relaxation 1
   ENCUT  =  500.0 eV  36.75 Ry    6.06 a.u.  13.97 13.97  5.33*2*pi/ulx,y,z
   ENINI  =  500.0     initial cutoff
   ENAUG  =  627.1 eV  augmentation charge cutoff
   NELM   =     60;   NELMIN=  2; NELMDL= -5     # of ELM steps 
   EDIFF  = 0.1E-07   stopping-criterion for ELM
   LREAL  =      F    real-space projection
   NLSPLINE    = F    spline interpolate recip. space projectors
   LCOMPAT=      F    compatible to vasp.4.4
   GGA_COMPAT  = T    GGA compatible to vasp.4.4-vasp.4.6
   LMAXPAW     = -100 max onsite density
   LMAXMIX     =    2 max onsite mixed and CHGCAR
   VOSKOWN=      0    Vosko Wilk Nusair interpolation
   ROPT   =    0.00000   0.00000
 Ionic relaxation
   EDIFFG = 0.1E-06   stopping-criterion for IOM
   NSW    =    205    number of steps for IOM
   NBLOCK =      1;   KBLOCK =      1    inner block; outer block 
   IBRION =      6    ionic relax: 0-MD 1-quasi-New 2-CG
   NFREE  =      2    steps in history (QN), initial steepest desc. (CG)
   ISIF   =      3    stress and relaxation
   IWAVPR =     11    prediction:  0-non 1-charg 2-wave 3-comb
   ISYM   =      2    0-nonsym 1-usesym 2-fastsym
   LCORR  =      T    Harris-Foulkes like correction to forces

   POTIM  = 0.5000    time-step for ionic-motion
   TEIN   =    0.0    initial temperature
   TEBEG  =    0.0;   TEEND  =   0.0 temperature during run
   SMASS  =  -3.00    Nose mass-parameter (am)
   estimated Nose-frequenzy (Omega)   =  0.10E-29 period in steps =****** mass=  -0.134E-26a.u.
   SCALEE = 1.0000    scale energy and forces
   NPACO  =    256;   APACO  = 16.0  distance and # of slots for P.C.
   PSTRESS=    0.0 pullay stress

  Mass of Ions in am
   POMASS =  28.09 14.00
  Ionic Valenz
   ZVAL   =   4.00  5.00
  Atomic Wigner-Seitz radii
   RWIGS  =  -1.00 -1.00
  virtual crystal weights 
   VCA    =   1.00  1.00
   NELECT =      64.0000    total number of electrons
   NUPDOWN=      -1.0000    fix difference up-down

 DOS related values:
   EMIN   =  10.00;   EMAX   =-10.00  energy-range for DOS
   EFERMI =   0.00
   ISMEAR =     0;   SIGMA  =   0.01  broadening in eV -4-tet -1-fermi 0-gaus

 Electronic relaxation 2 (details)
   IALGO  =     38    algorithm
   LDIAG  =      T    sub-space diagonalisation (order eigenvalues)
   LSUBROT=      F    optimize rotation matrix (better conditioning)
   TURBO    =      0    0=normal 1=particle mesh
   IRESTART =      0    0=no restart 2=restart with 2 vectors
   NREBOOT  =      0    no. of reboots
   NMIN     =      0    reboot dimension
   EREF     =   0.00    reference energy to select bands
   IMIX   =      4    mixing-type and parameters
     AMIX     =   0.40;   BMIX     =  1.00
     AMIX_MAG =   1.60;   BMIX_MAG =  1.00
     AMIN     =   0.10
     WC   =   100.;   INIMIX=   1;  MIXPRE=   1;  MAXMIX= -45

 Intra band minimization:
   WEIMIN = 0.0010     energy-eigenvalue tresh-hold
   EBREAK =  0.52E-10  absolut break condition
   DEPER  =   0.30     relativ break condition  

   TIME   =   0.40     timestep for ELM

  volume/ion in A,a.u.               =      10.61        71.63
  Fermi-wavevector in a.u.,A,eV,Ry     =   1.236316  2.336298 20.796193  1.528477
  Thomas-Fermi vector in A             =   2.370929
 
 Write flags
   LWAVE  =      F    write WAVECAR
   LCHARG =      F    write CHGCAR
   LVTOT  =      F    write LOCPOT, total local potential
   LVHAR  =      F    write LOCPOT, Hartree potential only
   LELF   =      F    write electronic localiz. function (ELF)
   LORBIT =      0    0 simple, 1 ext, 2 COOP (PROOUT)


 Dipole corrections
   LMONO  =      F    monopole corrections only (constant potential shift)
   LDIPOL =      F    correct potential (dipole corrections)
   IDIPOL =      0    1-x, 2-y, 3-z, 4-all directions 
   EPSILON=  1.0000000 bulk dielectric constant

 Exchange correlation treatment:
   GGA     =    --    GGA type
   LEXCH   =     8    internal setting for exchange type
   VOSKOWN=      0    Vosko Wilk Nusair interpolation
   LHFCALC =     F    Hartree Fock is set to
   LHFONE  =     F    Hartree Fock one center treatment
   AEXX    =    0.0000 exact exchange contribution

 Linear response parameters
   LEPSILON=     F    determine dielectric tensor
   LRPA    =     F    only Hartree local field effects (RPA)
   LNABLA  =     F    use nabla operator in PAW spheres
   LVEL    =     F    velocity operator in full k-point grid
   LINTERFAST=   F  fast interpolation
   KINTER  =     0    interpolate to denser k-point grid
   CSHIFT  =0.1000    complex shift for real part using Kramers Kronig
   OMEGAMAX=  -1.0    maximum frequency
   DEG_THRESHOLD= 0.2000000E-02 threshold for treating states as degnerate
   RTIME   =    0.100 relaxation time in fs

 Orbital magnetization related:
   ORBITALMAG=     F  switch on orbital magnetization
   LCHIMAG   =     F  perturbation theory with respect to B field
   DQ        =  0.001000  dq finite difference perturbation B field



--------------------------------------------------------------------------------------------------------


 finite differences with symmetry
 charge density and potential will be updated during run
 non-spin polarized calculation
 Variant of blocked Davidson
 Davidson routine will perform the subspace rotation
 perform sub-space diagonalisation
    after iterative eigenvector-optimisation
 modified Broyden-mixing scheme, WC =      100.0
 initial mixing is a Kerker type mixing with AMIX =  0.4000 and BMIX =      1.0000
 Hartree-type preconditioning will be used
 using additional bands           16
 reciprocal scheme for non local part
 use partial core corrections
 calculate Harris-corrections to forces 
   (improved forces if not selfconsistent)
 use gradient corrections 
 use of overlap-Matrix (Vanderbilt PP)
 Gauss-broadening in eV      SIGMA  =   0.01


--------------------------------------------------------------------------------------------------------


  energy-cutoff  :      500.00
  volume of cell :      148.60
      direct lattice vectors                 reciprocal lattice vectors
     7.659513780  0.000000000  0.000000000     0.130556590  0.075376882  0.000000000
    -3.829756890  6.633333514  0.000000000     0.000000000  0.150753765  0.000000000
     0.000000000  0.000000000  2.924711651     0.000000000  0.000000000  0.341914048

  length of vectors
     7.659513780  7.659513780  2.924711651     0.150753765  0.150753765  0.341914048


 
 k-points in units of 2pi/SCALE and weight: Automatic mesh                          
   0.00000000  0.00000000  0.02136963       0.016
   0.03263915  0.01884422  0.02136963       0.094
   0.06527829  0.03768844  0.02136963       0.047
   0.03263915  0.05653266  0.02136963       0.094
   0.00000000  0.00000000  0.06410888       0.016
   0.03263915  0.01884422  0.06410888       0.094
   0.06527829  0.03768844  0.06410888       0.047
   0.03263915  0.05653266  0.06410888       0.094
   0.00000000  0.00000000  0.10684814       0.016
   0.03263915  0.01884422  0.10684814       0.094
   0.06527829  0.03768844  0.10684814       0.047
   0.03263915  0.05653266  0.10684814       0.094
   0.00000000  0.00000000  0.14958740       0.016
   0.03263915  0.01884422  0.14958740       0.094
   0.06527829  0.03768844  0.14958740       0.047
   0.03263915  0.05653266  0.14958740       0.094
 
 k-points in reciprocal lattice and weights: Automatic mesh                          
   0.00000000  0.00000000  0.06250000       0.016
   0.25000000  0.00000000  0.06250000       0.094
   0.50000000  0.00000000  0.06250000       0.047
   0.25000000  0.25000000  0.06250000       0.094
   0.00000000  0.00000000  0.18750000       0.016
   0.25000000  0.00000000  0.18750000       0.094
   0.50000000  0.00000000  0.18750000       0.047
   0.25000000  0.25000000  0.18750000       0.094
   0.00000000  0.00000000  0.31250000       0.016
   0.25000000  0.00000000  0.31250000       0.094
   0.50000000  0.00000000  0.31250000       0.047
   0.25000000  0.25000000  0.31250000       0.094
   0.00000000  0.00000000  0.43750000       0.016
   0.25000000  0.00000000  0.43750000       0.094
   0.50000000  0.00000000  0.43750000       0.047
   0.25000000  0.25000000  0.43750000       0.094
 
 position of ions in fractional coordinates (direct lattice) 
   0.17495735  0.40610177  0.75000000
   0.59389823  0.76885558  0.75000000
   0.23114442  0.82504265  0.75000000
   0.82504265  0.59389823  0.25000000
   0.40610177  0.23114442  0.25000000
   0.76885558  0.17495735  0.25000000
   0.32997228  0.29920782  0.75000000
   0.70079218  0.03076445  0.75000000
   0.96923555  0.67002772  0.75000000
   0.33333333  0.66666667  0.75000000
   0.67002772  0.70079218  0.25000000
   0.29920782  0.96923555  0.25000000
   0.03076445  0.32997228  0.25000000
   0.66666667  0.33333333  0.25000000
 
 position of ions in cartesian coordinates  (Angst):
  -0.21518283  2.69380850  2.19353374
   1.60444171  5.10007547  2.19353374
  -1.38925888  5.47278306  2.19353374
   4.04493972  3.93952501  0.73117791
   2.22531518  1.53325805  0.73117791
   5.21901577  1.16055046  0.73117791
   1.38153398  1.98474527  2.19353374
   5.24990697  0.20407089  2.19353374
   4.85782972  4.44451736  2.19353374
   0.00000000  4.42222234  2.19353374
   2.44822291  4.64858824  0.73117791
  -1.42015008  6.42926263  0.73117791
  -1.02807283  2.18881616  0.73117791
   3.82975689  2.21111117  0.73117791
 


--------------------------------------------------------------------------------------------------------


 k-point  1 :   0.0000 0.0000 0.0625  plane waves:    3761
 k-point  2 :   0.2500 0.0000 0.0625  plane waves:    3780
 k-point  3 :   0.5000 0.0000 0.0625  plane waves:    3780
 k-point  4 :   0.2500 0.2500 0.0625  plane waves:    3788
 k-point  5 :   0.0000 0.0000 0.1875  plane waves:    3761
 k-point  6 :   0.2500 0.0000 0.1875  plane waves:    3773
 k-point  7 :   0.5000 0.0000 0.1875  plane waves:    3790
 k-point  8 :   0.2500 0.2500 0.1875  plane waves:    3777
 k-point  9 :   0.0000 0.0000 0.3125  plane waves:    3743
 k-point 10 :   0.2500 0.0000 0.3125  plane waves:    3771
 k-point 11 :   0.5000 0.0000 0.3125  plane waves:    3768
 k-point 12 :   0.2500 0.2500 0.3125  plane waves:    3755
 k-point 13 :   0.0000 0.0000 0.4375  plane waves:    3796
 k-point 14 :   0.2500 0.0000 0.4375  plane waves:    3759
 k-point 15 :   0.5000 0.0000 0.4375  plane waves:    3742
 k-point 16 :   0.2500 0.2500 0.4375  plane waves:    3766

 maximum and minimum number of plane-waves per node :      3796     3742

 maximum number of plane-waves:      3796
 maximum index in each direction: 
   IXMAX=   13   IYMAX=   13   IZMAX=    5
   IXMIN=  -14   IYMIN=  -14   IZMIN=   -5

 NGX is ok and might be reduce to  56
 NGY is ok and might be reduce to  56
 NGZ is ok and might be reduce to  22

 serial   3D FFT for wavefunctions
 parallel 3D FFT for charge:
    minimum data exchange during FFTs selected (reduces bandwidth)


 total amount of memory used by VASP on root node    52867. kBytes
========================================================================

   base      :      30000. kBytes
   nonl-proj :       8651. kBytes
   fftplans  :       5933. kBytes
   grid      :       5230. kBytes
   one-center:         43. kBytes
   wavefun   :       3010. kBytes
 
     INWAV:  cpu time    0.0000: real time    0.0000
 Broyden mixing: mesh for mixing (old mesh)
   NGX = 27   NGY = 27   NGZ = 11
  (NGX  =112   NGY  =112   NGZ  = 48)
  gives a total of   8019 points

 initial charge density was supplied:
 charge density of overlapping atoms calculated
 number of electron      64.0000000 magnetization 
 keeping initial charge density in first step


--------------------------------------------------------------------------------------------------------


 Maximum index for augmentation-charges         8413 (set IRDMAX)


--------------------------------------------------------------------------------------------------------


 First call to EWALD:  gamma=   0.335
 Maximum number of real-space cells 2x 2x 5
 Maximum number of reciprocal cells 4x 4x 2

 FEWALD executed in parallel
    FEWALD:  cpu time    0.0017: real time    0.0017


----------------------------------------- Iteration    1(   1)  ---------------------------------------


    POTLOK:  cpu time    0.0397: real time    0.0397
    SETDIJ:  cpu time    0.0403: real time    0.0404
     EDDAV:  cpu time    0.9515: real time    0.9522
       DOS:  cpu time    0.0003: real time    0.0003
    --------------------------------------------
      LOOP:  cpu time    1.0334: real time    1.0376

 eigenvalue-minimisations  :  1536
 total energy-change (2. order) : 0.2416463E+03  (-0.3103628E+04)
 number of electron      64.0000000 magnetization 
 augmentation part       64.0000000 magnetization 

 Free energy of the ion-electron system (eV)
  ---------------------------------------------------
  alpha Z        PSCENC =        95.91331308
  Ewald energy   TEWEN  =     -2388.87087685
  -Hartree energ DENC   =      -583.48580011
  -exchange      EXHF   =         0.00000000
  -V(xc)+E(xc)   XCENC  =       110.27890420
  PAW double counting   =      1094.24183023     -999.71995457
  entropy T*S    EENTRO =        -0.00029693
  eigenvalues    EBANDS =       178.61284117
  atomic energy  EATOM  =      2734.67633600
  Solvation  Ediel_sol  =         0.00000000
  ---------------------------------------------------
  free energy    TOTEN  =       241.64629625 eV

  energy without entropy =      241.64659317  energy(sigma->0) =      241.64644471


--------------------------------------------------------------------------------------------------------




----------------------------------------- Iteration    1(   2)  ---------------------------------------


     EDDAV:  cpu time    1.3022: real time    1.3030
       DOS:  cpu time    0.0002: real time    0.0002
    --------------------------------------------
      LOOP:  cpu time    1.3028: real time    1.3074

 eigenvalue-minimisations  :  2192
 total energy-change (2. order) :-0.3555105E+03  (-0.3365225E+03)
 number of electron      64.0000000 magnetization 
 augmentation part       64.0000000 magnetization 

 Free energy of the ion-electron system (eV)
  ---------------------------------------------------
  alpha Z        PSCENC =        95.91331308
  Ewald energy   TEWEN  =     -2388.87087685
  -Hartree energ DENC   =      -583.48580011
  -exchange      EXHF   =         0.00000000
  -V(xc)+E(xc)   XCENC  =       110.27890420
  PAW double counting   =      1094.24183023     -999.71995457
  entropy T*S    EENTRO =         0.00000000
  eigenvalues    EBANDS =      -176.89796758
  atomic energy  EATOM  =      2734.67633600
  Solvation  Ediel_sol  =         0.00000000
  ---------------------------------------------------
  free energy    TOTEN  =      -113.86421558 eV

  energy without entropy =     -113.86421558  energy(sigma->0) =     -113.86421558


--------------------------------------------------------------------------------------------------------




----------------------------------------- Iteration    1(   3)  ---------------------------------------


     EDDAV:  cpu time    1.2220: real time    1.2229
       DOS:  cpu time    0.0002: real time    0.0002
    --------------------------------------------
      LOOP:  cpu time    1.2227: real time    1.2288

 eigenvalue-minimisations  :  2048
 total energy-change (2. order) :-0.1693032E+02  (-0.1684051E+02)
 number of electron      64.0000000 magnetization 
 augmentation part       64.0000000 magnetization 

 Free energy of the ion-electron system (eV)
  ---------------------------------------------------
  alpha Z        PSCENC =        95.91331308
  Ewald energy   TEWEN  =     -2388.87087685
  -Hartree energ DENC   =      -583.48580011
  -exchange      EXHF   =         0.00000000
  -V(xc)+E(xc)   XCENC  =       110.27890420
  PAW double counting   =      1094.24183023     -999.71995457
  entropy T*S    EENTRO =         0.00000000
  eigenvalues    EBANDS =      -193.82829155
  atomic energy  EATOM  =      2734.67633600
  Solvation  Ediel_sol  =         0.00000000
  ---------------------------------------------------
  free energy    TOTEN  =      -130.79453955 eV

  energy without entropy =     -130.79453955  energy(sigma->0) =     -130.79453955


--------------------------------------------------------------------------------------------------------




----------------------------------------- Iteration    1(   4)  ---------------------------------------


     EDDAV:  cpu time    1.1422: real time    1.1466
       DOS:  cpu time    0.0002: real time    0.0002
    --------------------------------------------
      LOOP:  cpu time    1.1430: real time    1.4231

 eigenvalue-minimisations  :  1920
 total energy-change (2. order) :-0.1869648E+00  (-0.1868807E+00)
 number of electron      64.0000000 magnetization 
 augmentation part       64.0000000 magnetization 

 Free energy of the ion-electron system (eV)
  ---------------------------------------------------
  alpha Z        PSCENC =        95.91331308
  Ewald energy   TEWEN  =     -2388.87087685
  -Hartree energ DENC   =      -583.48580011
  -exchange      EXHF   =         0.00000000
  -V(xc)+E(xc)   XCENC  =       110.27890420
  PAW double counting   =      1094.24183023     -999.71995457
  entropy T*S    EENTRO =         0.00000000
  eigenvalues    EBANDS =      -194.01525634
  atomic energy  EATOM  =      2734.67633600
  Solvation  Ediel_sol  =         0.00000000
  ---------------------------------------------------
  free energy    TOTEN  =      -130.98150434 eV

  energy without entropy =     -130.98150434  energy(sigma->0) =     -130.98150434


--------------------------------------------------------------------------------------------------------




----------------------------------------- Iteration    1(   5)  ---------------------------------------


     EDDAV:  cpu time    1.2252: real time    1.2319
       DOS:  cpu time    0.0002: real time    0.0002
    CHARGE:  cpu time    0.0890: real time    0.0890
    MIXING:  cpu time    0.0009: real time    0.0009
    --------------------------------------------
      LOOP:  cpu time    1.3158: real time    1.3427

 eigenvalue-minimisations  :  2048
 total energy-change (2. order) :-0.3545248E-02  (-0.3544269E-02)
 number of electron      64.0000000 magnetization 
 augmentation part        1.7441456 magnetization 

 Broyden mixing:
  rms(total) = 0.22683E+01    rms(broyden)= 0.22674E+01
  rms(prec ) = 0.38929E+01
  weight for this iteration     100.00

 Free energy of the ion-electron system (eV)
  ---------------------------------------------------
  alpha Z        PSCENC =        95.91331308
  Ewald energy   TEWEN  =     -2388.87087685
  -Hartree energ DENC   =      -583.48580011
  -exchange      EXHF   =         0.00000000
  -V(xc)+E(xc)   XCENC  =       110.27890420
  PAW double counting   =      1094.24183023     -999.71995457
  entropy T*S    EENTRO =         0.00000000
  eigenvalues    EBANDS =      -194.01880159
  atomic energy  EATOM  =      2734.67633600
  Solvation  Ediel_sol  =         0.00000000
  ---------------------------------------------------
  free energy    TOTEN  =      -130.98504959 eV

  energy without entropy =     -130.98504959  energy(sigma->0) =     -130.98504959


--------------------------------------------------------------------------------------------------------




----------------------------------------- Iteration    1(   6)  ---------------------------------------


    POTLOK:  cpu time    0.0289: real time    0.0290
    SETDIJ:  cpu time    0.0365: real time    0.0365
     EDDAV:  cpu time    1.1860: real time    1.1896
       DOS:  cpu time    0.0002: real time    0.0002
    CHARGE:  cpu time    0.0867: real time    0.0880
    MIXING:  cpu time    0.0008: real time    0.0008
    --------------------------------------------
      LOOP:  cpu time    1.3398: real time    1.3490

 eigenvalue-minimisations  :  2000
 total energy-change (2. order) : 0.1637402E+02  (-0.5352360E+01)
 number of electron      64.0000000 magnetization 
 augmentation part        0.8646982 magnetization 

 Broyden mixing:
  rms(total) = 0.61098E+00    rms(broyden)= 0.61056E+00
  rms(prec ) = 0.90092E+00
  weight for this iteration     100.00

 eigenvalues of (default mixing * dielectric matrix)
  average eigenvalue GAMMA=   1.0366
  1.0366

 Free energy of the ion-electron system (eV)
  ---------------------------------------------------
  alpha Z        PSCENC =        95.91331308
  Ewald energy   TEWEN  =     -2388.87087685
  -Hartree energ DENC   =      -695.79484806
  -exchange      EXHF   =         0.00000000
  -V(xc)+E(xc)   XCENC  =       118.65235060
  PAW double counting   =      1402.26299734    -1309.19565885
  entropy T*S    EENTRO =         0.00000000
  eigenvalues    EBANDS =       -72.25464383
  atomic energy  EATOM  =      2734.67633600
  Solvation  Ediel_sol  =         0.00000000
  ---------------------------------------------------
  free energy    TOTEN  =      -114.61103057 eV

  energy without entropy =     -114.61103057  energy(sigma->0) =     -114.61103057


--------------------------------------------------------------------------------------------------------




----------------------------------------- Iteration    1(   7)  ---------------------------------------


    POTLOK:  cpu time    0.0288: real time    0.0288
    SETDIJ:  cpu time    0.0365: real time    0.0365
     EDDAV:  cpu time    1.2223: real time    1.2255
       DOS:  cpu time    0.0002: real time    0.0002
    CHARGE:  cpu time    0.0877: real time    0.0878
    MIXING:  cpu time    0.0009: real time    0.0009
    --------------------------------------------
      LOOP:  cpu time    1.3770: real time    1.3849

 eigenvalue-minimisations  :  2064
 total energy-change (2. order) : 0.2439890E-01  (-0.3159251E+00)
 number of electron      64.0000000 magnetization 
 augmentation part        0.7286653 magnetization 

 Broyden mixing:
  rms(total) = 0.40203E+00    rms(broyden)= 0.40195E+00
  rms(prec ) = 0.54102E+00
  weight for this iteration     100.00

 eigenvalues of (default mixing * dielectric matrix)
  average eigenvalue GAMMA=   1.8472
  1.1511  2.5434

 Free energy of the ion-electron system (eV)
  ---------------------------------------------------
  alpha Z        PSCENC =        95.91331308
  Ewald energy   TEWEN  =     -2388.87087685
  -Hartree energ DENC   =      -714.20140498
  -exchange      EXHF   =         0.00000000
  -V(xc)+E(xc)   XCENC  =       120.15122511
  PAW double counting   =      1484.42486722    -1391.84971876
  entropy T*S    EENTRO =         0.00000000
  eigenvalues    EBANDS =       -54.83037250
  atomic energy  EATOM  =      2734.67633600
  Solvation  Ediel_sol  =         0.00000000
  ---------------------------------------------------
  free energy    TOTEN  =      -114.58663167 eV

  energy without entropy =     -114.58663167  energy(sigma->0) =     -114.58663167


--------------------------------------------------------------------------------------------------------




----------------------------------------- Iteration    1(   8)  ---------------------------------------


    POTLOK:  cpu time    0.0287: real time    0.0288
    SETDIJ:  cpu time    0.0367: real time    0.0368
     EDDAV:  cpu time    1.1420: real time    1.1471
       DOS:  cpu time    0.0002: real time    0.0002
    CHARGE:  cpu time    0.0885: real time    0.0886
    MIXING:  cpu time    0.0010: real time    0.0010
    --------------------------------------------
      LOOP:  cpu time    1.2978: real time    1.3072

 eigenvalue-minimisations  :  1920
 total energy-change (2. order) : 0.1879207E-01  (-0.3858975E-01)
 number of electron      64.0000000 magnetization 
 augmentation part        0.7932046 magnetization 

 Broyden mixing:
  rms(total) = 0.10020E+00    rms(broyden)= 0.10020E+00
  rms(prec ) = 0.16367E+00
  weight for this iteration     100.00

 eigenvalues of (default mixing * dielectric matrix)
  average eigenvalue GAMMA=   1.5477
  2.5739  1.0346  1.0346

 Free energy of the ion-electron system (eV)
  ---------------------------------------------------
  alpha Z        PSCENC =        95.91331308
  Ewald energy   TEWEN  =     -2388.87087685
  -Hartree energ DENC   =      -719.78329710
  -exchange      EXHF   =         0.00000000
  -V(xc)+E(xc)   XCENC  =       120.78472625
  PAW double counting   =      1551.04052721    -1459.07739357
  entropy T*S    EENTRO =         0.00000000
  eigenvalues    EBANDS =       -49.25117463
  atomic energy  EATOM  =      2734.67633600
  Solvation  Ediel_sol  =         0.00000000
  ---------------------------------------------------
  free energy    TOTEN  =      -114.56783960 eV

  energy without entropy =     -114.56783960  energy(sigma->0) =     -114.56783960


--------------------------------------------------------------------------------------------------------




----------------------------------------- Iteration    1(   9)  ---------------------------------------


    POTLOK:  cpu time    0.0290: real time    0.0290
    SETDIJ:  cpu time    0.0361: real time    0.0362
     EDDAV:  cpu time    1.2181: real time    1.2211
       DOS:  cpu time    0.0002: real time    0.0002
    CHARGE:  cpu time    0.0875: real time    0.0886
    MIXING:  cpu time    0.0008: real time    0.0009
    --------------------------------------------
      LOOP:  cpu time    1.3723: real time    1.3806

 eigenvalue-minimisations  :  2048
 total energy-change (2. order) : 0.2648446E-01  (-0.1046002E-01)
 number of electron      64.0000000 magnetization 
 augmentation part        0.7555347 magnetization 

 Broyden mixing:
  rms(total) = 0.16966E-01    rms(broyden)= 0.16932E-01
  rms(prec ) = 0.26836E-01
  weight for this iteration     100.00

 eigenvalues of (default mixing * dielectric matrix)
  average eigenvalue GAMMA=   1.5955
  2.5026  1.8171  1.0311  1.0311

 Free energy of the ion-electron system (eV)
  ---------------------------------------------------
  alpha Z        PSCENC =        95.91331308
  Ewald energy   TEWEN  =     -2388.87087685
  -Hartree energ DENC   =      -724.77462605
  -exchange      EXHF   =         0.00000000
  -V(xc)+E(xc)   XCENC  =       121.14175736
  PAW double counting   =      1559.24785503    -1467.29514023
  entropy T*S    EENTRO =         0.00000000
  eigenvalues    EBANDS =       -44.57997349
  atomic energy  EATOM  =      2734.67633600
  Solvation  Ediel_sol  =         0.00000000
  ---------------------------------------------------
  free energy    TOTEN  =      -114.54135514 eV

  energy without entropy =     -114.54135514  energy(sigma->0) =     -114.54135514


--------------------------------------------------------------------------------------------------------




----------------------------------------- Iteration    1(  10)  ---------------------------------------


    POTLOK:  cpu time    0.0289: real time    0.0289
    SETDIJ:  cpu time    0.0367: real time    0.0367
     EDDAV:  cpu time    1.1778: real time    1.1810
       DOS:  cpu time    0.0002: real time    0.0002
    CHARGE:  cpu time    0.0878: real time    0.0879
    MIXING:  cpu time    0.0010: real time    0.0010
    --------------------------------------------
      LOOP:  cpu time    1.3331: real time    1.3413

 eigenvalue-minimisations  :  1984
 total energy-change (2. order) :-0.2297634E-02  (-0.1231131E-02)
 number of electron      64.0000000 magnetization 
 augmentation part        0.7467380 magnetization 

 Broyden mixing:
  rms(total) = 0.15443E-01    rms(broyden)= 0.15431E-01
  rms(prec ) = 0.23932E-01
  weight for this iteration     100.00

 eigenvalues of (default mixing * dielectric matrix)
  average eigenvalue GAMMA=   1.5663
  2.5085  2.5085  1.0359  1.0359  0.7430

 Free energy of the ion-electron system (eV)
  ---------------------------------------------------
  alpha Z        PSCENC =        95.91331308
  Ewald energy   TEWEN  =     -2388.87087685
  -Hartree energ DENC   =      -725.76111809
  -exchange      EXHF   =         0.00000000
  -V(xc)+E(xc)   XCENC  =       121.20038157
  PAW double counting   =      1556.06754661    -1464.07368778
  entropy T*S    EENTRO =         0.00000000
  eigenvalues    EBANDS =       -43.69554731
  atomic energy  EATOM  =      2734.67633600
  Solvation  Ediel_sol  =         0.00000000
  ---------------------------------------------------
  free energy    TOTEN  =      -114.54365277 eV

  energy without entropy =     -114.54365277  energy(sigma->0) =     -114.54365277


--------------------------------------------------------------------------------------------------------




----------------------------------------- Iteration    1(  11)  ---------------------------------------


    POTLOK:  cpu time    0.0287: real time    0.0288
    SETDIJ:  cpu time    0.0367: real time    0.0367
     EDDAV:  cpu time    1.1917: real time    1.1978
       DOS:  cpu time    0.0002: real time    0.0002
    CHARGE:  cpu time    0.0877: real time    0.0877
    MIXING:  cpu time    0.0010: real time    0.0010
    --------------------------------------------
      LOOP:  cpu time    1.3465: real time    1.3574

 eigenvalue-minimisations  :  2016
 total energy-change (2. order) : 0.2674115E-04  (-0.1069395E-03)
 number of electron      64.0000000 magnetization 
 augmentation part        0.7503377 magnetization 

 Broyden mixing:
  rms(total) = 0.55068E-02    rms(broyden)= 0.55066E-02
  rms(prec ) = 0.88453E-02
  weight for this iteration     100.00

 eigenvalues of (default mixing * dielectric matrix)
  average eigenvalue GAMMA=   1.5677
  2.7888  2.4789  0.9616  1.0783  1.0492  1.0492

 Free energy of the ion-electron system (eV)
  ---------------------------------------------------
  alpha Z        PSCENC =        95.91331308
  Ewald energy   TEWEN  =     -2388.87087685
  -Hartree energ DENC   =      -725.52452330
  -exchange      EXHF   =         0.00000000
  -V(xc)+E(xc)   XCENC  =       121.17984352
  PAW double counting   =      1554.26186973    -1462.26005170
  entropy T*S    EENTRO =         0.00000000
  eigenvalues    EBANDS =       -43.91953651
  atomic energy  EATOM  =      2734.67633600
  Solvation  Ediel_sol  =         0.00000000
  ---------------------------------------------------
  free energy    TOTEN  =      -114.54362603 eV

  energy without entropy =     -114.54362603  energy(sigma->0) =     -114.54362603


--------------------------------------------------------------------------------------------------------




----------------------------------------- Iteration    1(  12)  ---------------------------------------


    POTLOK:  cpu time    0.0287: real time    0.0287
    SETDIJ:  cpu time    0.0363: real time    0.0364
     EDDAV:  cpu time    1.2096: real time    1.2141
       DOS:  cpu time    0.0002: real time    0.0002
    CHARGE:  cpu time    0.0875: real time    0.0876
    MIXING:  cpu time    0.0011: real time    0.0011
    --------------------------------------------
      LOOP:  cpu time    1.3640: real time    1.3756

 eigenvalue-minimisations  :  2048
 total energy-change (2. order) :-0.6348780E-04  (-0.2869345E-04)
 number of electron      64.0000000 magnetization 
 augmentation part        0.7515998 magnetization 

 Broyden mixing:
  rms(total) = 0.14856E-02    rms(broyden)= 0.14839E-02
  rms(prec ) = 0.25630E-02
  weight for this iteration     100.00

 eigenvalues of (default mixing * dielectric matrix)
  average eigenvalue GAMMA=   1.6124
  3.1459  2.5367  1.4312  1.1308  1.1308  0.9555  0.9555

 Free energy of the ion-electron system (eV)
  ---------------------------------------------------
  alpha Z        PSCENC =        95.91331308
  Ewald energy   TEWEN  =     -2388.87087685
  -Hartree energ DENC   =      -725.54183303
  -exchange      EXHF   =         0.00000000
  -V(xc)+E(xc)   XCENC  =       121.17761998
  PAW double counting   =      1553.78512409    -1461.78450368
  entropy T*S    EENTRO =         0.00000000
  eigenvalues    EBANDS =       -43.89886911
  atomic energy  EATOM  =      2734.67633600
  Solvation  Ediel_sol  =         0.00000000
  ---------------------------------------------------
  free energy    TOTEN  =      -114.54368952 eV

  energy without entropy =     -114.54368952  energy(sigma->0) =     -114.54368952


--------------------------------------------------------------------------------------------------------




----------------------------------------- Iteration    1(  13)  ---------------------------------------


    POTLOK:  cpu time    0.0287: real time    0.0287
    SETDIJ:  cpu time    0.0365: real time    0.0365
     EDDAV:  cpu time    1.1849: real time    1.1875
       DOS:  cpu time    0.0002: real time    0.0002
    CHARGE:  cpu time    0.0876: real time    0.0877
    MIXING:  cpu time    0.0011: real time    0.0011
    --------------------------------------------
      LOOP:  cpu time    1.3396: real time    1.3553

 eigenvalue-minimisations  :  2000
 total energy-change (2. order) :-0.1395280E-04  (-0.2894562E-05)
 number of electron      64.0000000 magnetization 
 augmentation part        0.7518667 magnetization 

 Broyden mixing:
  rms(total) = 0.66262E-03    rms(broyden)= 0.66205E-03
  rms(prec ) = 0.10928E-02
  weight for this iteration     100.00

 eigenvalues of (default mixing * dielectric matrix)
  average eigenvalue GAMMA=   1.6291
  3.1379  2.4976  2.1857  0.8919  1.0906  1.0906  1.0691  1.0691

 Free energy of the ion-electron system (eV)
  ---------------------------------------------------
  alpha Z        PSCENC =        95.91331308
  Ewald energy   TEWEN  =     -2388.87087685
  -Hartree energ DENC   =      -725.54013949
  -exchange      EXHF   =         0.00000000
  -V(xc)+E(xc)   XCENC  =       121.17577457
  PAW double counting   =      1553.70509206    -1461.70593692
  entropy T*S    EENTRO =         0.00000000
  eigenvalues    EBANDS =       -43.89726593
  atomic energy  EATOM  =      2734.67633600
  Solvation  Ediel_sol  =         0.00000000
  ---------------------------------------------------
  free energy    TOTEN  =      -114.54370347 eV

  energy without entropy =     -114.54370347  energy(sigma->0) =     -114.54370347


--------------------------------------------------------------------------------------------------------




----------------------------------------- Iteration    1(  14)  ---------------------------------------


    POTLOK:  cpu time    0.0286: real time    0.0287
    SETDIJ:  cpu time    0.0363: real time    0.0364
     EDDAV:  cpu time    1.1841: real time    1.1895
       DOS:  cpu time    0.0002: real time    0.0002
    CHARGE:  cpu time    0.0906: real time    0.0906
    MIXING:  cpu time    0.0014: real time    0.0014
    --------------------------------------------
      LOOP:  cpu time    1.3419: real time    1.3522

 eigenvalue-minimisations  :  2000
 total energy-change (2. order) :-0.3709300E-05  (-0.1303421E-05)
 number of electron      64.0000000 magnetization 
 augmentation part        0.7522195 magnetization 

 Broyden mixing:
  rms(total) = 0.40082E-03    rms(broyden)= 0.40058E-03
  rms(prec ) = 0.61007E-03
  weight for this iteration     100.00

 eigenvalues of (default mixing * dielectric matrix)
  average eigenvalue GAMMA=   1.6340
  3.2876  2.7391  2.3998  1.1850  1.1850  1.0260  1.0260  1.0168  0.8410

 Free energy of the ion-electron system (eV)
  ---------------------------------------------------
  alpha Z        PSCENC =        95.91331308
  Ewald energy   TEWEN  =     -2388.87087685
  -Hartree energ DENC   =      -725.52702792
  -exchange      EXHF   =         0.00000000
  -V(xc)+E(xc)   XCENC  =       121.17409212
  PAW double counting   =      1553.73387871    -1461.73604239
  entropy T*S    EENTRO =         0.00000000
  eigenvalues    EBANDS =       -43.90737994
  atomic energy  EATOM  =      2734.67633600
  Solvation  Ediel_sol  =         0.00000000
  ---------------------------------------------------
  free energy    TOTEN  =      -114.54370718 eV

  energy without entropy =     -114.54370718  energy(sigma->0) =     -114.54370718


--------------------------------------------------------------------------------------------------------




----------------------------------------- Iteration    1(  15)  ---------------------------------------


    POTLOK:  cpu time    0.0289: real time    0.0290
    SETDIJ:  cpu time    0.0365: real time    0.0366
     EDDAV:  cpu time    1.2207: real time    1.2255
       DOS:  cpu time    0.0002: real time    0.0002
    CHARGE:  cpu time    0.0877: real time    0.0877
    MIXING:  cpu time    0.0011: real time    0.0011
    --------------------------------------------
      LOOP:  cpu time    1.3757: real time    1.3928

 eigenvalue-minimisations  :  2048
 total energy-change (2. order) :-0.5963002E-06  (-0.1618641E-06)
 number of electron      64.0000000 magnetization 
 augmentation part        0.7521106 magnetization 

 Broyden mixing:
  rms(total) = 0.13187E-03    rms(broyden)= 0.13183E-03
  rms(prec ) = 0.20760E-03
  weight for this iteration     100.00

 eigenvalues of (default mixing * dielectric matrix)
  average eigenvalue GAMMA=   1.6572
  3.4799  2.7239  2.4737  1.8001  1.0418  1.0418  1.0964  1.0964  0.8443  0.9733

 Free energy of the ion-electron system (eV)
  ---------------------------------------------------
  alpha Z        PSCENC =        95.91331308
  Ewald energy   TEWEN  =     -2388.87087685
  -Hartree energ DENC   =      -725.54072315
  -exchange      EXHF   =         0.00000000
  -V(xc)+E(xc)   XCENC  =       121.17485333
  PAW double counting   =      1553.80963188    -1461.81215018
  entropy T*S    EENTRO =         0.00000000
  eigenvalues    EBANDS =       -43.89409189
  atomic energy  EATOM  =      2734.67633600
  Solvation  Ediel_sol  =         0.00000000
  ---------------------------------------------------
  free energy    TOTEN  =      -114.54370778 eV

  energy without entropy =     -114.54370778  energy(sigma->0) =     -114.54370778


--------------------------------------------------------------------------------------------------------




----------------------------------------- Iteration    1(  16)  ---------------------------------------


    POTLOK:  cpu time    0.0289: real time    0.0289
    SETDIJ:  cpu time    0.0365: real time    0.0365
     EDDAV:  cpu time    1.2047: real time    1.2083
       DOS:  cpu time    0.0002: real time    0.0002
    CHARGE:  cpu time    0.0880: real time    0.0880
    MIXING:  cpu time    0.0014: real time    0.0014
    --------------------------------------------
      LOOP:  cpu time    1.3604: real time    1.3811

 eigenvalue-minimisations  :  2032
 total energy-change (2. order) :-0.1292537E-06  (-0.1756238E-07)
 number of electron      64.0000000 magnetization 
 augmentation part        0.7521125 magnetization 

 Broyden mixing:
  rms(total) = 0.66370E-04    rms(broyden)= 0.66303E-04
  rms(prec ) = 0.10063E-03
  weight for this iteration     100.00

 eigenvalues of (default mixing * dielectric matrix)
  average eigenvalue GAMMA=   1.6880
  3.6040  2.9136  2.5360  2.1556  1.2843  1.0597  1.0597  0.8613  0.9796  1.0568
  1.0568

 Free energy of the ion-electron system (eV)
  ---------------------------------------------------
  alpha Z        PSCENC =        95.91331308
  Ewald energy   TEWEN  =     -2388.87087685
  -Hartree energ DENC   =      -725.53924507
  -exchange      EXHF   =         0.00000000
  -V(xc)+E(xc)   XCENC  =       121.17482129
  PAW double counting   =      1553.81615315    -1461.81847679
  entropy T*S    EENTRO =         0.00000000
  eigenvalues    EBANDS =       -43.89573271
  atomic energy  EATOM  =      2734.67633600
  Solvation  Ediel_sol  =         0.00000000
  ---------------------------------------------------
  free energy    TOTEN  =      -114.54370790 eV

  energy without entropy =     -114.54370790  energy(sigma->0) =     -114.54370790


--------------------------------------------------------------------------------------------------------




----------------------------------------- Iteration    1(  17)  ---------------------------------------


    POTLOK:  cpu time    0.0287: real time    0.0287
    SETDIJ:  cpu time    0.0365: real time    0.0365
     EDDAV:  cpu time    1.2126: real time    1.2172
       DOS:  cpu time    0.0002: real time    0.0002
    CHARGE:  cpu time    0.0875: real time    0.0877
    MIXING:  cpu time    0.0015: real time    0.0014
    --------------------------------------------
      LOOP:  cpu time    1.3674: real time    1.3768

 eigenvalue-minimisations  :  2048
 total energy-change (2. order) : 0.2262914E-07  (-0.8170431E-08)
 number of electron      64.0000000 magnetization 
 augmentation part        0.7520894 magnetization 

 Broyden mixing:
  rms(total) = 0.15109E-04    rms(broyden)= 0.14817E-04
  rms(prec ) = 0.22158E-04
  weight for this iteration     100.00

 eigenvalues of (default mixing * dielectric matrix)
  average eigenvalue GAMMA=   1.6846
  3.5878  2.8591  2.4741  2.1524  2.1524  1.0537  1.0537  1.0477  1.0477  0.9957
  0.9263  0.8641

 Free energy of the ion-electron system (eV)
  ---------------------------------------------------
  alpha Z        PSCENC =        95.91331308
  Ewald energy   TEWEN  =     -2388.87087685
  -Hartree energ DENC   =      -725.54122807
  -exchange      EXHF   =         0.00000000
  -V(xc)+E(xc)   XCENC  =       121.17499302
  PAW double counting   =      1553.81994573    -1461.82216864
  entropy T*S    EENTRO =         0.00000000
  eigenvalues    EBANDS =       -43.89402216
  atomic energy  EATOM  =      2734.67633600
  Solvation  Ediel_sol  =         0.00000000
  ---------------------------------------------------
  free energy    TOTEN  =      -114.54370788 eV

  energy without entropy =     -114.54370788  energy(sigma->0) =     -114.54370788


--------------------------------------------------------------------------------------------------------




----------------------------------------- Iteration    1(  18)  ---------------------------------------


    POTLOK:  cpu time    0.0287: real time    0.0287
    SETDIJ:  cpu time    0.0367: real time    0.0368
     EDDAV:  cpu time    0.9868: real time    0.9900
       DOS:  cpu time    0.0002: real time    0.0002
    --------------------------------------------
      LOOP:  cpu time    1.0529: real time    1.0625

 eigenvalue-minimisations  :  1520
 total energy-change (2. order) : 0.5577931E-08  (-0.4195834E-09)
 number of electron      64.0000000 magnetization 
 augmentation part        0.7520894 magnetization 

 Free energy of the ion-electron system (eV)
  ---------------------------------------------------
  alpha Z        PSCENC =        95.91331308
  Ewald energy   TEWEN  =     -2388.87087685
  -Hartree energ DENC   =      -725.54052919
  -exchange      EXHF   =         0.00000000
  -V(xc)+E(xc)   XCENC  =       121.17494633
  PAW double counting   =      1553.81689805    -1461.81911629
  entropy T*S    EENTRO =         0.00000000
  eigenvalues    EBANDS =       -43.89467901
  atomic energy  EATOM  =      2734.67633600
  Solvation  Ediel_sol  =         0.00000000
  ---------------------------------------------------
  free energy    TOTEN  =      -114.54370788 eV

  energy without entropy =     -114.54370788  energy(sigma->0) =     -114.54370788


--------------------------------------------------------------------------------------------------------




 average (electrostatic) potential at core
  the test charge radii are     0.9892  0.7089
  (the norm of the test charge is              1.0000)
       1 -82.5741       2 -82.5741       3 -82.5741       4 -82.5741       5 -82.5741
       6 -82.5741       7 -61.0818       8 -61.0818       9 -61.0818      10 -60.7522
      11 -61.0818      12 -61.0818      13 -61.0818      14 -60.7522
 
 
 
 E-fermi :   6.6408     XC(G=0): -10.7148     alpha+bet :-14.3631


 k-point     1 :       0.0000    0.0000    0.0625
  band No.  band energies     occupation 
      1     -11.4747      2.00000
      2     -10.0582      2.00000
      3     -10.0582      2.00000
      4      -9.4358      2.00000
      5      -9.2944      2.00000
      6      -9.2944      2.00000
      7      -8.0971      2.00000
      8      -7.8091      2.00000
      9      -1.4793      2.00000
     10      -1.4793      2.00000
     11      -1.3775      2.00000
     12      -0.7247      2.00000
     13      -0.7247      2.00000
     14       0.8174      2.00000
     15       0.8174      2.00000
     16       1.6917      2.00000
     17       1.8052      2.00000
     18       2.4105      2.00000
     19       2.4105      2.00000
     20       2.5088      2.00000
     21       2.5088      2.00000
     22       3.2147      2.00000
     23       3.2147      2.00000
     24       3.2425      2.00000
     25       3.6163      2.00000
     26       5.0228      2.00000
     27       5.0228      2.00000
     28       5.3060      2.00000
     29       5.3060      2.00000
     30       5.9401      2.00000
     31       5.9852      2.00000
     32       6.4655      2.00000
     33      11.1177      0.00000
     34      11.3396      0.00000
     35      11.5791      0.00000
     36      11.5791      0.00000
     37      11.8151      0.00000
     38      11.8151      0.00000
     39      12.4844      0.00000
     40      13.9039      0.00000
     41      14.3788      0.00000
     42      14.3788      0.00000
     43      15.2746      0.00000
     44      15.9064      0.00000
     45      15.9064      0.00000
     46      15.9251      0.00000
     47      15.9251      0.00000
     48      16.0832      0.00000

 k-point     2 :       0.2500    0.0000    0.0625
  band No.  band energies     occupation 
      1     -11.3433      2.00000
      2     -10.3845      2.00000
      3     -10.1489      2.00000
      4      -9.7555      2.00000
      5      -9.0962      2.00000
      6      -8.6995      2.00000
      7      -8.0701      2.00000
      8      -7.9104      2.00000
      9      -2.4689      2.00000
     10      -1.8472      2.00000
     11      -1.2077      2.00000
     12      -0.2807      2.00000
     13       0.0183      2.00000
     14       0.8860      2.00000
     15       0.9891      2.00000
     16       1.8301      2.00000
     17       1.9005      2.00000
     18       2.3298      2.00000
     19       2.3626      2.00000
     20       2.5428      2.00000
     21       2.6122      2.00000
     22       3.1889      2.00000
     23       3.2387      2.00000
     24       3.2969      2.00000
     25       3.5993      2.00000
     26       4.5881      2.00000
     27       4.9119      2.00000
     28       4.9931      2.00000
     29       5.2627      2.00000
     30       5.8958      2.00000
     31       6.0503      2.00000
     32       6.3443      2.00000
     33      11.2437      0.00000
     34      11.4309      0.00000
     35      11.6157      0.00000
     36      11.6722      0.00000
     37      11.9163      0.00000
     38      12.1258      0.00000
     39      12.7083      0.00000
     40      13.8239      0.00000
     41      14.0559      0.00000
     42      14.2771      0.00000
     43      14.9100      0.00000
     44      15.2478      0.00000
     45      15.7236      0.00000
     46      15.9264      0.00000
     47      16.1038      0.00000
     48      16.2964      0.00000

 k-point     3 :       0.5000    0.0000    0.0625
  band No.  band energies     occupation 
      1     -11.0284      2.00000
      2     -10.8756      2.00000
      3     -10.2179      2.00000
      4      -9.8052      2.00000
      5      -8.8805      2.00000
      6      -8.4144      2.00000
      7      -8.0541      2.00000
      8      -8.0089      2.00000
      9      -2.9429      2.00000
     10      -2.0634      2.00000
     11      -1.3442      2.00000
     12      -0.0748      2.00000
     13       0.7878      2.00000
     14       0.8113      2.00000
     15       1.3281      2.00000
     16       1.7536      2.00000
     17       2.0547      2.00000
     18       2.2276      2.00000
     19       2.2872      2.00000
     20       2.4859      2.00000
     21       3.0443      2.00000
     22       3.1145      2.00000
     23       3.3210      2.00000
     24       3.4738      2.00000
     25       3.5607      2.00000
     26       3.8471      2.00000
     27       4.6185      2.00000
     28       4.8879      2.00000
     29       5.2639      2.00000
     30       5.7526      2.00000
     31       6.1296      2.00000
     32       6.2377      2.00000
     33      11.2795      0.00000
     34      11.4353      0.00000
     35      11.6253      0.00000
     36      11.9135      0.00000
     37      12.4104      0.00000
     38      12.5294      0.00000
     39      12.6988      0.00000
     40      13.1993      0.00000
     41      13.9760      0.00000
     42      14.3294      0.00000
     43      14.6213      0.00000
     44      15.0065      0.00000
     45      15.6873      0.00000
     46      15.8479      0.00000
     47      16.0705      0.00000
     48      16.2678      0.00000

 k-point     4 :       0.2500    0.2500    0.0625
  band No.  band energies     occupation 
      1     -11.0914      2.00000
      2     -10.6315      2.00000
      3     -10.5469      2.00000
      4      -9.5018      2.00000
      5      -9.1021      2.00000
      6      -8.3781      2.00000
      7      -8.0372      2.00000
      8      -7.9931      2.00000
      9      -2.9885      2.00000
     10      -1.8948      2.00000
     11      -1.5008      2.00000
     12      -0.1126      2.00000
     13       0.8022      2.00000
     14       1.1005      2.00000
     15       1.2269      2.00000
     16       1.6795      2.00000
     17       2.0549      2.00000
     18       2.0780      2.00000
     19       2.3756      2.00000
     20       2.3922      2.00000
     21       2.9967      2.00000
     22       3.1799      2.00000
     23       3.2633      2.00000
     24       3.4536      2.00000
     25       3.6134      2.00000
     26       4.2159      2.00000
     27       4.2736      2.00000
     28       5.0814      2.00000
     29       5.2198      2.00000
     30       5.6789      2.00000
     31       6.1286      2.00000
     32       6.2300      2.00000
     33      11.3690      0.00000
     34      11.5165      0.00000
     35      11.5265      0.00000
     36      12.0052      0.00000
     37      12.2666      0.00000
     38      12.4314      0.00000
     39      12.6733      0.00000
     40      13.4768      0.00000
     41      13.6154      0.00000
     42      14.3985      0.00000
     43      14.8548      0.00000
     44      15.0133      0.00000
     45      15.5599      0.00000
     46      15.8579      0.00000
     47      16.0265      0.00000
     48      16.1887      0.00000

 k-point     5 :       0.0000    0.0000    0.1875
  band No.  band energies     occupation 
      1     -11.1116      2.00000
      2      -9.7351      2.00000
      3      -9.7351      2.00000
      4      -9.1920      2.00000
      5      -9.0230      2.00000
      6      -9.0230      2.00000
      7      -7.9669      2.00000
      8      -7.7792      2.00000
      9      -1.5158      2.00000
     10      -1.5158      2.00000
     11      -1.1474      2.00000
     12      -0.7527      2.00000
     13      -0.7527      2.00000
     14       0.5760      2.00000
     15       0.8750      2.00000
     16       0.8750      2.00000
     17       1.5128      2.00000
     18       1.5128      2.00000
     19       1.5254      2.00000
     20       1.6931      2.00000
     21       1.6931      2.00000
     22       2.6015      2.00000
     23       2.9880      2.00000
     24       3.1577      2.00000
     25       3.1577      2.00000
     26       4.9471      2.00000
     27       4.9471      2.00000
     28       4.9566      2.00000
     29       5.3104      2.00000
     30       5.3104      2.00000
     31       5.3195      2.00000
     32       6.5643      2.00000
     33      12.3945      0.00000
     34      12.4283      0.00000
     35      12.4283      0.00000
     36      12.9319      0.00000
     37      12.9319      0.00000
     38      13.0213      0.00000
     39      13.0436      0.00000
     40      13.9467      0.00000
     41      14.0118      0.00000
     42      14.0118      0.00000
     43      14.7461      0.00000
     44      14.7461      0.00000
     45      15.1999      0.00000
     46      15.6563      0.00000
     47      15.6566      0.00000
     48      15.7754      0.00000

 k-point     6 :       0.2500    0.0000    0.1875
  band No.  band energies     occupation 
      1     -10.9844      2.00000
      2     -10.0523      2.00000
      3      -9.8202      2.00000
      4      -9.4767      2.00000
      5      -8.8412      2.00000
      6      -8.4804      2.00000
      7      -7.9479      2.00000
      8      -7.8625      2.00000
      9      -2.2446      2.00000
     10      -1.8099      2.00000
     11      -1.0672      2.00000
     12      -0.4356      2.00000
     13      -0.1407      2.00000
     14       0.4109      2.00000
     15       0.8163      2.00000
     16       1.0274      2.00000
     17       1.3640      2.00000
     18       1.5013      2.00000
     19       1.6248      2.00000
     20       1.8513      2.00000
     21       1.9620      2.00000
     22       2.5605      2.00000
     23       3.1039      2.00000
     24       3.1364      2.00000
     25       3.2560      2.00000
     26       4.5517      2.00000
     27       4.7712      2.00000
     28       4.8882      2.00000
     29       5.2506      2.00000
     30       5.3524      2.00000
     31       5.4966      2.00000
     32       6.3415      2.00000
     33      12.1598      0.00000
     34      12.3316      0.00000
     35      12.5733      0.00000
     36      12.8525      0.00000
     37      12.9267      0.00000
     38      13.1246      0.00000
     39      13.2305      0.00000
     40      13.8687      0.00000
     41      14.0892      0.00000
     42      14.2507      0.00000
     43      14.5854      0.00000
     44      14.6633      0.00000
     45      15.1000      0.00000
     46      15.4078      0.00000
     47      15.6248      0.00000
     48      15.9058      0.00000

 k-point     7 :       0.5000    0.0000    0.1875
  band No.  band energies     occupation 
      1     -10.6842      2.00000
      2     -10.5235      2.00000
      3      -9.8853      2.00000
      4      -9.5203      2.00000
      5      -8.6417      2.00000
      6      -8.2194      2.00000
      7      -7.9615      2.00000
      8      -7.9230      2.00000
      9      -2.6399      2.00000
     10      -2.0025      2.00000
     11      -1.1646      2.00000
     12      -0.2463      2.00000
     13       0.4086      2.00000
     14       0.4166      2.00000
     15       0.7513      2.00000
     16       0.8230      2.00000
     17       1.3278      2.00000
     18       1.7153      2.00000
     19       1.7180      2.00000
     20       1.8199      2.00000
     21       2.2554      2.00000
     22       2.5992      2.00000
     23       2.9469      2.00000
     24       3.2220      2.00000
     25       3.5726      2.00000
     26       4.0541      2.00000
     27       4.6164      2.00000
     28       4.7664      2.00000
     29       5.2681      2.00000
     30       5.3839      2.00000
     31       5.6578      2.00000
     32       6.0317      2.00000
     33      11.9375      0.00000
     34      12.1817      0.00000
     35      12.6801      0.00000
     36      12.7608      0.00000
     37      13.1285      0.00000
     38      13.2298      0.00000
     39      13.3998      0.00000
     40      13.7699      0.00000
     41      14.2462      0.00000
     42      14.3162      0.00000
[...]
      2.448223  4.648588  0.731178     0.000000    0.000000   -0.280936  
     -1.420150  6.429263  0.731178     0.000000    0.000000    0.072464  
     -1.028073  2.188816  0.731178     0.000000    0.000000    0.208472  
      3.829757  2.211111  0.731178     0.000000    0.000000    0.000000  
 
  33 f  =    7.901804 THz    49.648496 2PiTHz  263.575789 cm-1    32.679245 meV
             X         Y         Z           dx          dy          dz
     -0.215183  2.693809  2.193534     0.000000    0.000000    0.261573  
      1.604442  5.100075  2.193534     0.000000    0.000000    0.261573  
     -1.389259  5.472783  2.193534     0.000000    0.000000    0.261573  
      4.044940  3.939525  0.731178     0.000000    0.000000   -0.261573  
      2.225315  1.533258  0.731178     0.000000    0.000000   -0.261573  
      5.219016  1.160550  0.731178     0.000000    0.000000   -0.261573  
      1.381534  1.984745  2.193534     0.000000    0.000000   -0.146041  
      5.249907  0.204071  2.193534     0.000000    0.000000   -0.146041  
      4.857830  4.444517  2.193534     0.000000    0.000000   -0.146041  
      0.000000  4.422222  2.193534     0.000000    0.000000    0.480370  
      2.448223  4.648588  0.731178     0.000000    0.000000    0.146041  
     -1.420150  6.429263  0.731178     0.000000    0.000000    0.146041  
     -1.028073  2.188816  0.731178     0.000000    0.000000    0.146041  
      3.829757  2.211111  0.731178     0.000000    0.000000   -0.480370  
 
  34 f  =    7.260461 THz    45.618823 2PiTHz  242.182907 cm-1    30.026864 meV
             X         Y         Z           dx          dy          dz
     -0.215183  2.693809  2.193534     0.074898   -0.076088    0.000000  
      1.604442  5.100075  2.193534     0.028446    0.102908    0.000000  
     -1.389259  5.472783  2.193534    -0.103343   -0.026819    0.000000  
      4.044940  3.939525  0.731178     0.074898   -0.076088    0.000000  
      2.225315  1.533258  0.731178     0.028446    0.102908    0.000000  
      5.219016  1.160550  0.731178    -0.103343   -0.026819    0.000000  
      1.381534  1.984745  2.193534     0.204242    0.336976    0.000000  
      5.249907  0.204071  2.193534    -0.393951    0.008391    0.000000  
      4.857830  4.444517  2.193534     0.189708   -0.345367    0.000000  
      0.000000  4.422222  2.193534     0.000000    0.000000    0.000000  
      2.448223  4.648588  0.731178     0.204242    0.336976    0.000000  
     -1.420150  6.429263  0.731178    -0.393951    0.008391    0.000000  
     -1.028073  2.188816  0.731178     0.189708   -0.345367    0.000000  
      3.829757  2.211111  0.731178     0.000000    0.000000    0.000000  
 
  35 f  =    6.580924 THz    41.349166 2PiTHz  219.515996 cm-1    27.216525 meV
             X         Y         Z           dx          dy          dz
     -0.215183  2.693809  2.193534     0.000000    0.000000   -0.051887  
      1.604442  5.100075  2.193534     0.000000    0.000000   -0.390334  
     -1.389259  5.472783  2.193534     0.000000    0.000000    0.442221  
      4.044940  3.939525  0.731178     0.000000    0.000000    0.051887  
      2.225315  1.533258  0.731178     0.000000    0.000000    0.390334  
      5.219016  1.160550  0.731178     0.000000    0.000000   -0.442221  
      1.381534  1.984745  2.193534     0.000000    0.000000    0.231229  
      5.249907  0.204071  2.193534     0.000000    0.000000   -0.301609  
      4.857830  4.444517  2.193534     0.000000    0.000000    0.070380  
      0.000000  4.422222  2.193534     0.000000    0.000000    0.000000  
      2.448223  4.648588  0.731178     0.000000    0.000000   -0.231229  
     -1.420150  6.429263  0.731178     0.000000    0.000000    0.301609  
     -1.028073  2.188816  0.731178     0.000000    0.000000   -0.070380  
      3.829757  2.211111  0.731178     0.000000    0.000000    0.000000  
 
  36 f  =    6.580924 THz    41.349166 2PiTHz  219.515996 cm-1    27.216525 meV
             X         Y         Z           dx          dy          dz
     -0.215183  2.693809  2.193534     0.000000    0.000000   -0.480676  
      1.604442  5.100075  2.193534     0.000000    0.000000    0.285273  
     -1.389259  5.472783  2.193534     0.000000    0.000000    0.195402  
      4.044940  3.939525  0.731178     0.000000    0.000000    0.480676  
      2.225315  1.533258  0.731178     0.000000    0.000000   -0.285273  
      5.219016  1.160550  0.731178     0.000000    0.000000   -0.195402  
      1.381534  1.984745  2.193534     0.000000    0.000000   -0.214768  
      5.249907  0.204071  2.193534     0.000000    0.000000   -0.092866  
      4.857830  4.444517  2.193534     0.000000    0.000000    0.307634  
      0.000000  4.422222  2.193534     0.000000    0.000000    0.000000  
      2.448223  4.648588  0.731178     0.000000    0.000000    0.214768  
     -1.420150  6.429263  0.731178     0.000000    0.000000    0.092866  
     -1.028073  2.188816  0.731178     0.000000    0.000000   -0.307634  
      3.829757  2.211111  0.731178     0.000000    0.000000    0.000000  
 
  37 f  =    5.948047 THz    37.372683 2PiTHz  198.405491 cm-1    24.599155 meV
             X         Y         Z           dx          dy          dz
     -0.215183  2.693809  2.193534     0.350813   -0.029113    0.000000  
      1.604442  5.100075  2.193534    -0.150194    0.318369    0.000000  
     -1.389259  5.472783  2.193534    -0.200619   -0.289257    0.000000  
      4.044940  3.939525  0.731178    -0.350813    0.029113    0.000000  
      2.225315  1.533258  0.731178     0.150194   -0.318369    0.000000  
      5.219016  1.160550  0.731178     0.200619    0.289257    0.000000  
      1.381534  1.984745  2.193534     0.145723   -0.146677    0.000000  
      5.249907  0.204071  2.193534     0.054165    0.199538    0.000000  
      4.857830  4.444517  2.193534    -0.199887   -0.052861    0.000000  
      0.000000  4.422222  2.193534     0.000000    0.000000    0.000000  
      2.448223  4.648588  0.731178    -0.145723    0.146677    0.000000  
     -1.420150  6.429263  0.731178    -0.054165   -0.199538    0.000000  
     -1.028073  2.188816  0.731178     0.199887    0.052861    0.000000  
      3.829757  2.211111  0.731178     0.000000    0.000000    0.000000  
 
  38 f  =    5.306347 THz    33.340763 2PiTHz  177.000689 cm-1    21.945296 meV
             X         Y         Z           dx          dy          dz
     -0.215183  2.693809  2.193534    -0.016119   -0.322804    0.000000  
      1.604442  5.100075  2.193534    -0.071199    0.098113    0.000000  
     -1.389259  5.472783  2.193534     0.320866   -0.064644    0.000000  
      4.044940  3.939525  0.731178     0.016119    0.322804    0.000000  
      2.225315  1.533258  0.731178     0.071199   -0.098113    0.000000  
      5.219016  1.160550  0.731178    -0.320866    0.064644    0.000000  
      1.381534  1.984745  2.193534    -0.029789   -0.236365    0.000000  
      5.249907  0.204071  2.193534    -0.357746    0.037315    0.000000  
      4.857830  4.444517  2.193534     0.043246    0.184494    0.000000  
      0.000000  4.422222  2.193534     0.070744   -0.216022    0.000000  
      2.448223  4.648588  0.731178     0.029789    0.236365    0.000000  
     -1.420150  6.429263  0.731178     0.357746   -0.037315    0.000000  
     -1.028073  2.188816  0.731178    -0.043246   -0.184494    0.000000  
      3.829757  2.211111  0.731178    -0.070744    0.216022    0.000000  
 
  39 f  =    5.306347 THz    33.340763 2PiTHz  177.000689 cm-1    21.945296 meV
             X         Y         Z           dx          dy          dz
     -0.215183  2.693809  2.193534    -0.129914    0.171817    0.000000  
      1.604442  5.100075  2.193534     0.291003    0.226898    0.000000  
     -1.389259  5.472783  2.193534     0.128246   -0.165168    0.000000  
      4.044940  3.939525  0.731178     0.129914   -0.171817    0.000000  
      2.225315  1.533258  0.731178    -0.291003   -0.226898    0.000000  
      5.219016  1.160550  0.731178    -0.128246    0.165168    0.000000  
      1.381534  1.984745  2.193534    -0.226661   -0.199737    0.000000  
      5.249907  0.204071  2.193534     0.047019    0.128220    0.000000  
      4.857830  4.444517  2.193534     0.194198   -0.272772    0.000000  
      0.000000  4.422222  2.193534     0.216022    0.070744    0.000000  
      2.448223  4.648588  0.731178     0.226661    0.199737    0.000000  
     -1.420150  6.429263  0.731178    -0.047019   -0.128220    0.000000  
     -1.028073  2.188816  0.731178    -0.194198    0.272772    0.000000  
      3.829757  2.211111  0.731178    -0.216022   -0.070744    0.000000  
 
  40 f/i=    0.000904 THz     0.005677 2PiTHz    0.030138 cm-1     0.003737 meV
             X         Y         Z           dx          dy          dz
     -0.215183  2.693809  2.193534     0.000000    0.000000   -0.316407  
      1.604442  5.100075  2.193534     0.000000    0.000000   -0.316407  
     -1.389259  5.472783  2.193534     0.000000    0.000000   -0.316407  
      4.044940  3.939525  0.731178     0.000000    0.000000   -0.316407  
      2.225315  1.533258  0.731178     0.000000    0.000000   -0.316407  
      5.219016  1.160550  0.731178     0.000000    0.000000   -0.316407  
      1.381534  1.984745  2.193534     0.000000    0.000000   -0.223401  
      5.249907  0.204071  2.193534     0.000000    0.000000   -0.223401  
      4.857830  4.444517  2.193534     0.000000    0.000000   -0.223401  
      0.000000  4.422222  2.193534     0.000000    0.000000   -0.223465  
      2.448223  4.648588  0.731178     0.000000    0.000000   -0.223401  
     -1.420150  6.429263  0.731178     0.000000    0.000000   -0.223401  
     -1.028073  2.188816  0.731178     0.000000    0.000000   -0.223401  
      3.829757  2.211111  0.731178     0.000000    0.000000   -0.223465  
 
  41 f/i=    0.001536 THz     0.009654 2PiTHz    0.051252 cm-1     0.006354 meV
             X         Y         Z           dx          dy          dz
     -0.215183  2.693809  2.193534    -0.145406    0.281012    0.000000  
      1.604442  5.100075  2.193534    -0.145406    0.281025    0.000000  
     -1.389259  5.472783  2.193534    -0.145395    0.281019    0.000000  
      4.044940  3.939525  0.731178    -0.145406    0.281012    0.000000  
      2.225315  1.533258  0.731178    -0.145406    0.281025    0.000000  
      5.219016  1.160550  0.731178    -0.145395    0.281019    0.000000  
      1.381534  1.984745  2.193534    -0.102670    0.198405    0.000000  
      5.249907  0.204071  2.193534    -0.102692    0.198418    0.000000  
      4.857830  4.444517  2.193534    -0.102670    0.198430    0.000000  
      0.000000  4.422222  2.193534    -0.102665    0.198452    0.000000  
      2.448223  4.648588  0.731178    -0.102670    0.198405    0.000000  
     -1.420150  6.429263  0.731178    -0.102692    0.198418    0.000000  
     -1.028073  2.188816  0.731178    -0.102670    0.198430    0.000000  
      3.829757  2.211111  0.731178    -0.102665    0.198452    0.000000  
 
  42 f/i=    0.001536 THz     0.009654 2PiTHz    0.051252 cm-1     0.006354 meV
             X         Y         Z           dx          dy          dz
     -0.215183  2.693809  2.193534    -0.281026   -0.145399    0.000000  
      1.604442  5.100075  2.193534    -0.281013   -0.145398    0.000000  
     -1.389259  5.472783  2.193534    -0.281019   -0.145410    0.000000  
      4.044940  3.939525  0.731178    -0.281026   -0.145399    0.000000  
      2.225315  1.533258  0.731178    -0.281013   -0.145398    0.000000  
      5.219016  1.160550  0.731178    -0.281019   -0.145410    0.000000  
      1.381534  1.984745  2.193534    -0.198430   -0.102684    0.000000  
      5.249907  0.204071  2.193534    -0.198417   -0.102662    0.000000  
      4.857830  4.444517  2.193534    -0.198405   -0.102685    0.000000  
      0.000000  4.422222  2.193534    -0.198452   -0.102665    0.000000  
      2.448223  4.648588  0.731178    -0.198430   -0.102684    0.000000  
     -1.420150  6.429263  0.731178    -0.198417   -0.102662    0.000000  
     -1.028073  2.188816  0.731178    -0.198405   -0.102685    0.000000  
      3.829757  2.211111  0.731178    -0.198452   -0.102665    0.000000  
 


--------------------------------------------------------------------------------------------------------



 ELASTIC MODULI CONTR FROM IONIC RELAXATION (kBar)
 Direction    XX          YY          ZZ          XY          YZ          ZX
 --------------------------------------------------------------------------------
 XX       -1027.0426    628.5088    231.2800      0.0000      0.0000      0.0000
 YY         628.5088  -1027.0426    231.2800      0.0000      0.0000      0.0000
 ZZ         231.2800    231.2800   -735.6970      0.0000      0.0000      0.0000
 XY           0.0000      0.0000      0.0000   -827.7757      0.0000      0.0000
 YZ           0.0000      0.0000      0.0000      0.0000   -617.6803      0.0000
 ZX           0.0000      0.0000      0.0000      0.0000      0.0000   -617.6803
 --------------------------------------------------------------------------------


 TOTAL ELASTIC MODULI (kBar)
 Direction    XX          YY          ZZ          XY          YZ          ZX
 --------------------------------------------------------------------------------
 XX        4083.3904   1834.2473   1061.2955      0.0000      0.0000      0.0000
 YY        1834.2473   4083.3904   1061.2955      0.0000      0.0000      0.0000
 ZZ        1061.2955   1061.2955   5287.9382      0.0000      0.0000      0.0000
 XY           0.0000      0.0000      0.0000   1124.5715      0.0000      0.0000
 YZ           0.0000      0.0000      0.0000      0.0000   1015.4974      0.0000
 ZX           0.0000      0.0000      0.0000      0.0000      0.0000   1015.4974
 --------------------------------------------------------------------------------



--------------------------------------------------------------------------------------------------------


  LATTYP: Found a hexagonal cell.
 ALAT       =     7.6595137796
 C/A-ratio  =     0.3818403798
  
  Lattice vectors:
  
 A1 = (   7.6595137796,   0.0000000000,   0.0000000000)
 A2 = (  -3.8297568898,   6.6333335137,   0.0000000000)
 A3 = (   0.0000000000,   0.0000000000,   2.9247116510)


Analysis of symmetry for initial positions (statically):
=====================================================================
 Subroutine PRICEL returns:
 Original cell was already a primitive cell.
 

 Routine SETGRP: Setting up the symmetry group for a 
 hexagonal supercell.


 Subroutine GETGRP returns: Found 12 space group operations
 (whereof  6 operations were pure point group operations)
 out of a pool of 24 trial point group operations.


The static configuration has the point symmetry S_6 .
 The point group associated with its full space group is C_6h.


Analysis of symmetry for dynamics (positions and initial velocities):
=====================================================================
 Subroutine PRICEL returns:
 Original cell was already a primitive cell.
 

 Routine SETGRP: Setting up the symmetry group for a 
 hexagonal supercell.


 Subroutine GETGRP returns: Found 12 space group operations
 (whereof  6 operations were pure point group operations)
 out of a pool of 24 trial point group operations.


The dynamic configuration has the point symmetry S_6 .
 The point group associated with its full space group is C_6h.


 Subroutine INISYM returns: Found 12 space group operations
 (whereof  6 operations are pure point group operations),
 and found     1 'primitive' translations

 
 KPOINTS: Automatic mesh                          

Automatic generation of k-mesh.
Space group operators:
 irot       det(A)        alpha          n_x          n_y          n_z        tau_x        tau_y        tau_z
    1     1.000000     0.000000     1.000000     0.000000     0.000000     0.000000     0.000000     0.000000
    2    -1.000000     0.000000     1.000000     0.000000     0.000000     0.000000     0.000000     0.000000
    3     1.000000   120.000000     0.000000     0.000000    -1.000000     0.000000     0.000000     0.000000
    4    -1.000000   120.000000     0.000000     0.000000    -1.000000     0.000000     0.000000     0.000000
    5     1.000000   120.000000     0.000000     0.000000     1.000000     0.000000     0.000000     0.000000
    6    -1.000000   120.000000     0.000000     0.000000     1.000000     0.000000     0.000000     0.000000
    7     1.000000    60.000000     0.000000     0.000000    -1.000000     0.000000     0.000000     0.500000
    8    -1.000000    60.000000     0.000000     0.000000    -1.000000     0.000000     0.000000     0.500000
    9     1.000000   180.000000     0.000000     0.000000     1.000000     0.000000     0.000000     0.500000
   10    -1.000000   180.000000     0.000000     0.000000     1.000000     0.000000     0.000000     0.500000
   11     1.000000    60.000000     0.000000     0.000000     1.000000     0.000000     0.000000     0.500000
   12    -1.000000    60.000000     0.000000     0.000000     1.000000     0.000000     0.000000     0.500000
 
 Subroutine IBZKPT returns following result:
 ===========================================
 
 Found     16 irreducible k-points:
 
 Following reciprocal coordinates:
            Coordinates               Weight
  0.000000  0.000000  0.062500      2.000000
  0.250000  0.000000  0.062500     12.000000
  0.500000  0.000000  0.062500      6.000000
  0.250000  0.250000  0.062500     12.000000
  0.000000  0.000000  0.187500      2.000000
  0.250000  0.000000  0.187500     12.000000
  0.500000  0.000000  0.187500      6.000000
  0.250000  0.250000  0.187500     12.000000
  0.000000  0.000000  0.312500      2.000000
  0.250000  0.000000  0.312500     12.000000
  0.500000  0.000000  0.312500      6.000000
  0.250000  0.250000  0.312500     12.000000
  0.000000  0.000000  0.437500      2.000000
  0.250000  0.000000  0.437500     12.000000
  0.500000  0.000000  0.437500      6.000000
  0.250000  0.250000  0.437500     12.000000
 
 Following cartesian coordinates:
            Coordinates               Weight
  0.000000  0.000000  0.021370      2.000000
  0.032639  0.018844  0.021370     12.000000
  0.065278  0.037688  0.021370      6.000000
  0.032639  0.056533  0.021370     12.000000
  0.000000  0.000000  0.064109      2.000000
  0.032639  0.018844  0.064109     12.000000
  0.065278  0.037688  0.064109      6.000000
  0.032639  0.056533  0.064109     12.000000
  0.000000  0.000000  0.106848      2.000000
  0.032639  0.018844  0.106848     12.000000
  0.065278  0.037688  0.106848      6.000000
  0.032639  0.056533  0.106848     12.000000
  0.000000  0.000000  0.149587      2.000000
  0.032639  0.018844  0.149587     12.000000
  0.065278  0.037688  0.149587      6.000000
  0.032639  0.056533  0.149587     12.000000
 
     LOOP+:  cpu time   21.7144: real time   34.7866
    4ORBIT:  cpu time    0.0000: real time    0.0000

 total amount of memory used by VASP on root node    52867. kBytes
========================================================================

   base      :      30000. kBytes
   nonl-proj :       8651. kBytes
   fftplans  :       5933. kBytes
   grid      :       5230. kBytes
   one-center:         43. kBytes
   wavefun   :       3010. kBytes
 
  
  
 General timing and accounting informations for this job:
 ========================================================
  
                  Total CPU time used (sec):     1176.700
                            User time (sec):     1175.653
                          System time (sec):        1.047
                         Elapsed time (sec):     1493.560
  
                   Maximum memory used (kb):      136344.
                   Average memory used (kb):           0.
  
                          Minor page faults:       170185
                          Major page faults:            6
                 Voluntary context switches:         4295
