 running on   16 total cores
 distrk:  each k-point on   16 cores,    1 groups
 distr:  one band on    1 cores,   16 groups
 using from now: INCAR     
 vasp.5.4.1 05Feb16 (build Mar 26 2016 11:58:25) complex                        
  
 POSCAR found type information on POSCAR  Si N 
 POSCAR found :  2 types and      14 ions
 scaLAPACK will be used

 ----------------------------------------------------------------------------- 
|                                                                             |
|           W    W    AA    RRRRR   N    N  II  N    N   GGGG   !!!           |
|           W    W   A  A   R    R  NN   N  II  NN   N  G    G  !!!           |
|           W    W  A    A  R    R  N N  N  II  N N  N  G       !!!           |
|           W WW W  AAAAAA  RRRRR   N  N N  II  N  N N  G  GGG   !            |
|           WW  WW  A    A  R   R   N   NN  II  N   NN  G    G                |
|           W    W  A    A  R    R  N    N  II  N    N   GGGG   !!!           |
|                                                                             |
|      For optimal performance we recommend to set                            |
|        NCORE= 4 - approx SQRT( number of cores)                             |
|      NCORE specifies how many cores store one orbital (NPAR=cpu/NCORE).     |
|      This setting can  greatly improve the performance of VASP for DFT.     |
|      The default, NPAR=number of cores might be grossly inefficient         |
|      on modern multi-core architectures or massively parallel machines.     |
|      Do your own testing !!!!                                               |
|      Unfortunately you need to use the default for GW and RPA calculations. |
|      (for HF NCORE is supported but not extensively tested yet)             |
|                                                                             |
 ----------------------------------------------------------------------------- 

 LDA part: xc-table for Pade appr. of Perdew
 POSCAR, INCAR and KPOINTS ok, starting setup
 FFT: planning ...
 WAVECAR not read
 entering main loop
       N       E                     dE             d eps       ncg     rms          rms(c)
DAV:   1     0.241646296247E+03    0.24165E+03   -0.31036E+04  1536   0.120E+03
DAV:   2    -0.113864215584E+03   -0.35551E+03   -0.33652E+03  2192   0.249E+02
DAV:   3    -0.130794539547E+03   -0.16930E+02   -0.16841E+02  2048   0.572E+01
DAV:   4    -0.130981504340E+03   -0.18696E+00   -0.18688E+00  1920   0.685E+00
DAV:   5    -0.130985049587E+03   -0.35452E-02   -0.35443E-02  2048   0.899E-01    0.227E+01
DAV:   6    -0.114611030565E+03    0.16374E+02   -0.53524E+01  2000   0.285E+01    0.611E+00
DAV:   7    -0.114586631666E+03    0.24399E-01   -0.31593E+00  2064   0.681E+00    0.402E+00
DAV:   8    -0.114567839598E+03    0.18792E-01   -0.38590E-01  1920   0.293E+00    0.100E+00
DAV:   9    -0.114541355136E+03    0.26484E-01   -0.10460E-01  2048   0.135E+00    0.170E-01
DAV:  10    -0.114543652770E+03   -0.22976E-02   -0.12311E-02  1984   0.433E-01    0.154E-01
DAV:  11    -0.114543626029E+03    0.26741E-04   -0.10694E-03  2016   0.153E-01    0.551E-02
DAV:  12    -0.114543689517E+03   -0.63488E-04   -0.28693E-04  2048   0.810E-02    0.149E-02
DAV:  13    -0.114543703469E+03   -0.13953E-04   -0.28946E-05  2000   0.267E-02    0.663E-03
DAV:  14    -0.114543707179E+03   -0.37093E-05   -0.13034E-05  2000   0.135E-02    0.401E-03
DAV:  15    -0.114543707775E+03   -0.59630E-06   -0.16186E-06  2048   0.643E-03    0.132E-03
DAV:  16    -0.114543707904E+03   -0.12925E-06   -0.17562E-07  2032   0.234E-03    0.664E-04
DAV:  17    -0.114543707882E+03    0.22629E-07   -0.81704E-08  2048   0.118E-03    0.151E-04
DAV:  18    -0.114543707876E+03    0.55779E-08   -0.41958E-09  1520   0.324E-04
   1 F= -.11454371E+03 E0= -.11454371E+03  d E =-.307114E-29

 ----------------------------------------------------------------------------- 
|                                                                             |
|           W    W    AA    RRRRR   N    N  II  N    N   GGGG   !!!           |
|           W    W   A  A   R    R  NN   N  II  NN   N  G    G  !!!           |
|           W    W  A    A  R    R  N N  N  II  N N  N  G       !!!           |
|           W WW W  AAAAAA  RRRRR   N  N N  II  N  N N  G  GGG   !            |
|           WW  WW  A    A  R   R   N   NN  II  N   NN  G    G                |
|           W    W  A    A  R    R  N    N  II  N    N   GGGG   !!!           |
|                                                                             |
|      Your timestep is larger than 0.1 Angst.                                |
|      For finite differences this really does not make sense. I will         |
|      reset POTIM to 0.015. I recommend to use 0.01 to 0.02 for finite       |
|      differences.                                                           |
|                                                                             |
 ----------------------------------------------------------------------------- 

 Found     8 degrees of freedom:
 Adding 6 more for cell shape distortion
 Finite differences POTIM= 0.01500 DOF=  14
 bond charge predicted
       N       E                     dE             d eps       ncg     rms          rms(c)
DAV:   1    -0.114556408753E+03   -0.12701E-01   -0.29787E+00  4704   0.840E+00    0.147E+00
DAV:   2    -0.114504965013E+03    0.51444E-01   -0.13660E-01  5072   0.198E+00    0.701E-01
DAV:   3    -0.114493835628E+03    0.11129E-01   -0.59228E-02  5104   0.116E+00    0.275E-01
DAV:   4    -0.114492318491E+03    0.15171E-02   -0.88572E-03  4912   0.505E-01    0.135E-01
DAV:   5    -0.114491877686E+03    0.44081E-03   -0.24326E-03  5136   0.211E-01    0.363E-02
DAV:   6    -0.114491853037E+03    0.24649E-04   -0.15315E-04  5120   0.783E-02    0.157E-02
DAV:   7    -0.114491858865E+03   -0.58282E-05   -0.11833E-04  5104   0.486E-02    0.172E-02
DAV:   8    -0.114491852914E+03    0.59517E-05   -0.30762E-05  5072   0.301E-02    0.221E-03
DAV:   9    -0.114491853651E+03   -0.73755E-06   -0.62553E-06  5104   0.118E-02    0.306E-03
DAV:  10    -0.114491853511E+03    0.13983E-06   -0.31375E-07  5072   0.304E-03    0.173E-03
DAV:  11    -0.114491853519E+03   -0.73337E-08   -0.35793E-07  5072   0.277E-03    0.294E-04
DAV:  12    -0.114491853550E+03   -0.31866E-07   -0.28265E-08  4560   0.996E-04    0.172E-04
DAV:  13    -0.114491853577E+03   -0.26350E-07   -0.81197E-09  3824   0.445E-04    0.254E-04
DAV:  14    -0.114491853586E+03   -0.90422E-08   -0.38750E-09  3728   0.393E-04
   2 F= -.11449185E+03 E0= -.11449185E+03  d E =-.111637E-20
 Finite differences progress:
  Degree of freedom:   1/ 14
  Displacement:        1/  2
  Total:               1/ 28
 bond charge predicted
       N       E                     dE             d eps       ncg     rms          rms(c)
DAV:   1    -0.114751632758E+03   -0.25978E+00   -0.92628E+00  4816   0.150E+01    0.300E+00
DAV:   2    -0.114538248641E+03    0.21338E+00   -0.50056E-01  5008   0.378E+00    0.139E+00
DAV:   3    -0.114495940200E+03    0.42308E-01   -0.20552E-01  5120   0.211E+00    0.523E-01
DAV:   4    -0.114490320988E+03    0.56192E-02   -0.38297E-02  4896   0.102E+00    0.233E-01
DAV:   5    -0.114488918551E+03    0.14024E-02   -0.54465E-03  5104   0.381E-01    0.583E-02
DAV:   6    -0.114488919575E+03   -0.10243E-05   -0.91558E-04  5024   0.161E-01    0.284E-02
DAV:   7    -0.114488944766E+03   -0.25191E-04   -0.17696E-04  5088   0.654E-02    0.288E-02
DAV:   8    -0.114488933755E+03    0.11011E-04   -0.45667E-05  4992   0.348E-02    0.700E-03
DAV:   9    -0.114488935768E+03   -0.20128E-05   -0.19770E-05  5072   0.206E-02    0.593E-03
DAV:  10    -0.114488935407E+03    0.36097E-06   -0.25796E-06  5072   0.752E-03    0.259E-03
DAV:  11    -0.114488935390E+03    0.16798E-07   -0.67872E-07  5024   0.366E-03    0.596E-04
DAV:  12    -0.114488935371E+03    0.19132E-07   -0.48340E-08  5104   0.109E-03    0.355E-04
DAV:  13    -0.114488935337E+03    0.34047E-07   -0.10822E-08  4176   0.530E-04    0.211E-04
DAV:  14    -0.114488935329E+03    0.75679E-08   -0.26816E-09  3776   0.245E-04
   3 F= -.11448894E+03 E0= -.11448894E+03  d E =-.780927E-74
 Finite differences progress:
  Degree of freedom:   1/ 14
  Displacement:        2/  2
  Total:               2/ 28
 bond charge predicted
       N       E                     dE             d eps       ncg     rms          rms(c)
DAV:   1    -0.114657273843E+03   -0.16834E+00   -0.79562E+00  4848   0.135E+01    0.248E+00
DAV:   2    -0.114513699931E+03    0.14357E+00   -0.37699E-01  4880   0.299E+00    0.936E-01
DAV:   3    -0.114496090421E+03    0.17610E-01   -0.91293E-02  5088   0.128E+00    0.330E-01
DAV:   4    -0.114492993143E+03    0.30973E-02   -0.18127E-02  5056   0.628E-01    0.194E-01
DAV:   5    -0.114491875533E+03    0.11176E-02   -0.30783E-03  5088   0.266E-01    0.345E-02
DAV:   6    -0.114491901775E+03   -0.26242E-04   -0.50692E-04  5120   0.103E-01    0.225E-02
DAV:   7    -0.114491902926E+03   -0.11516E-05   -0.25839E-05  5104   0.297E-02    0.173E-02
DAV:   8    -0.114491901218E+03    0.17089E-05   -0.29414E-05  4944   0.265E-02    0.355E-03
DAV:   9    -0.114491902309E+03   -0.10912E-05   -0.43131E-06  5104   0.109E-02    0.150E-03
DAV:  10    -0.114491902727E+03   -0.41839E-06   -0.51188E-07  4960   0.321E-03    0.124E-03
DAV:  11    -0.114491902779E+03   -0.52057E-07   -0.26721E-07  5088   0.214E-03    0.467E-04
DAV:  12    -0.114491902824E+03   -0.44616E-07   -0.22744E-08  4544   0.751E-04    0.314E-04
DAV:  13    -0.114491902868E+03   -0.43722E-07   -0.68724E-09  3824   0.452E-04    0.931E-05
DAV:  14    -0.114491902864E+03    0.33133E-08   -0.30810E-09  3744   0.292E-04
   4 F= -.11449190E+03 E0= -.11449190E+03  d E =-.161842E-22
 Finite differences progress:
  Degree of freedom:   2/ 14
  Displacement:        1/  2
  Total:               3/ 28
 bond charge predicted
       N       E                     dE             d eps       ncg     rms          rms(c)
DAV:   1    -0.114751471695E+03   -0.25957E+00   -0.92408E+00  4752   0.150E+01    0.300E+00
DAV:   2    -0.114537943639E+03    0.21353E+00   -0.49180E-01  5008   0.375E+00    0.139E+00
DAV:   3    -0.114495926662E+03    0.42017E-01   -0.20601E-01  5104   0.211E+00    0.521E-01
DAV:   4    -0.114490415822E+03    0.55108E-02   -0.40750E-02  4928   0.104E+00    0.246E-01
DAV:   5    -0.114488792657E+03    0.16232E-02   -0.58418E-03  5104   0.413E-01    0.492E-02
DAV:   6    -0.114488844257E+03   -0.51600E-04   -0.10074E-03  5024   0.157E-01    0.289E-02
DAV:   7    -0.114488861255E+03   -0.16999E-04   -0.13307E-04  5088   0.547E-02    0.279E-02
DAV:   8    -0.114488851590E+03    0.96652E-05   -0.53792E-05  4976   0.383E-02    0.590E-03
DAV:   9    -0.114488853176E+03   -0.15859E-05   -0.16822E-05  5056   0.192E-02    0.505E-03
DAV:  10    -0.114488853136E+03    0.39934E-07   -0.93294E-07  5056   0.474E-03    0.292E-03
DAV:  11    -0.114488853077E+03    0.59039E-07   -0.12840E-06  5040   0.469E-03    0.641E-04
DAV:  12    -0.114488853065E+03    0.11748E-07   -0.71107E-08  4992   0.146E-03    0.398E-04
DAV:  13    -0.114488853039E+03    0.25694E-07   -0.84268E-09  3952   0.457E-04    0.260E-04
DAV:  14    -0.114488853031E+03    0.79531E-08   -0.73248E-09  3744   0.413E-04
   5 F= -.11448885E+03 E0= -.11448885E+03  d E =-.139033E-16
 Finite differences progress:
  Degree of freedom:   2/ 14
  Displacement:        2/  2
  Total:               4/ 28
 bond charge predicted
       N       E                     dE             d eps       ncg     rms          rms(c)
DAV:   1    -0.114641136157E+03   -0.15228E+00   -0.54355E+00  1824   0.114E+01    0.243E+00
DAV:   2    -0.114505624905E+03    0.13551E+00   -0.36324E-01  1952   0.278E+00    0.869E-01
DAV:   3    -0.114488223012E+03    0.17402E-01   -0.65672E-02  2032   0.110E+00    0.328E-01
DAV:   4    -0.114483832816E+03    0.43902E-02   -0.18493E-02  2016   0.634E-01    0.191E-01
DAV:   5    -0.114482817927E+03    0.10149E-02   -0.45865E-03  2048   0.321E-01    0.318E-02
DAV:   6    -0.114482881633E+03   -0.63707E-04   -0.66702E-04  2048   0.128E-01    0.204E-02
DAV:   7    -0.114482919065E+03   -0.37431E-04   -0.12831E-04  2048   0.552E-02    0.216E-02
DAV:   8    -0.114482937396E+03   -0.18332E-04   -0.62685E-05  2016   0.361E-02    0.321E-03
DAV:   9    -0.114482964266E+03   -0.26870E-04   -0.62909E-06  2080   0.171E-02    0.103E-03
DAV:  10    -0.114482979916E+03   -0.15650E-04   -0.30225E-06  2096   0.102E-02    0.136E-03
DAV:  11    -0.114482990390E+03   -0.10474E-04   -0.71062E-07  2064   0.575E-03    0.740E-04
DAV:  12    -0.114482993364E+03   -0.29735E-05   -0.34915E-07  2000   0.291E-03    0.301E-04
DAV:  13    -0.114482993833E+03   -0.46916E-06   -0.21244E-08  1744   0.717E-04    0.148E-04
DAV:  14    -0.114482994060E+03   -0.22677E-06   -0.50852E-09  1472   0.334E-04    0.795E-05
DAV:  15    -0.114482994074E+03   -0.14381E-07   -0.13988E-09  1264   0.180E-04    0.579E-05
DAV:  16    -0.114482994081E+03   -0.67153E-08   -0.31896E-10  1296   0.936E-05
   6 F= -.11448299E+03 E0= -.11448299E+03  d E =-.115364E-15
 Finite differences progress:
  Degree of freedom:   3/ 14
  Displacement:        1/  2
  Total:               5/ 28
 bond charge predicted
       N       E                     dE             d eps       ncg     rms          rms(c)
DAV:   1    -0.114734508850E+03   -0.25151E+00   -0.12477E+01  1808   0.174E+01    0.301E+00
DAV:   2    -0.114534215088E+03    0.20029E+00   -0.54820E-01  2032   0.382E+00    0.145E+00
DAV:   3    -0.114486201915E+03    0.48013E-01   -0.21463E-01  2016   0.206E+00    0.521E-01
DAV:   4    -0.114480107336E+03    0.60946E-02   -0.35427E-02  1984   0.971E-01    0.234E-01
DAV:   5    -0.114478805351E+03    0.13020E-02   -0.60672E-03  2048   0.359E-01    0.670E-02
DAV:   6    -0.114478727986E+03    0.77365E-04   -0.59757E-04  2000   0.140E-01    0.232E-02
DAV:   7    -0.114478755738E+03   -0.27753E-04   -0.19729E-04  2032   0.645E-02    0.257E-02
DAV:   8    -0.114478742018E+03    0.13721E-04   -0.63688E-05  1984   0.395E-02    0.388E-03
DAV:   9    -0.114478744538E+03   -0.25207E-05   -0.12223E-05  1968   0.165E-02    0.532E-03
DAV:  10    -0.114478744072E+03    0.46668E-06   -0.87299E-07  1968   0.459E-03    0.242E-03
DAV:  11    -0.114478743891E+03    0.18031E-06   -0.79967E-07  1968   0.391E-03    0.660E-04
DAV:  12    -0.114478743878E+03    0.13780E-07   -0.59661E-08  2080   0.128E-03    0.944E-04
DAV:  13    -0.114478743881E+03   -0.37862E-08   -0.19666E-08  1792   0.700E-04
   7 F= -.11447874E+03 E0= -.11447874E+03  d E =-.657609E-58
 Finite differences progress:
  Degree of freedom:   3/ 14
  Displacement:        2/  2
  Total:               6/ 28
 bond charge predicted
       N       E                     dE             d eps       ncg     rms          rms(c)
DAV:   1    -0.114613113884E+03   -0.13437E+00   -0.47238E+00  4560   0.106E+01    0.172E+00
DAV:   2    -0.114545478052E+03    0.67636E-01   -0.19711E-01  5104   0.240E+00    0.891E-01
DAV:   3    -0.114526058395E+03    0.19420E-01   -0.90536E-02  5120   0.147E+00    0.333E-01
DAV:   4    -0.114523897958E+03    0.21604E-02   -0.15121E-02  4896   0.663E-01    0.160E-01
DAV:   5    -0.114523370559E+03    0.52740E-03   -0.35128E-03  5152   0.262E-01    0.369E-02
DAV:   6    -0.114523355034E+03    0.15525E-04   -0.20054E-04  5072   0.786E-02    0.233E-02
DAV:   7    -0.114523351328E+03    0.37057E-05   -0.12588E-04  5104   0.567E-02    0.147E-02
DAV:   8    -0.114523347463E+03    0.38650E-05   -0.25814E-05  5632   0.326E-02    0.375E-03
DAV:   9    -0.114523347783E+03   -0.32022E-06   -0.44408E-06  5024   0.970E-03    0.159E-03
DAV:  10    -0.114523347993E+03   -0.21017E-06   -0.62250E-07  5072   0.362E-03    0.110E-03
DAV:  11    -0.114523347987E+03    0.67316E-08   -0.88452E-08  5056   0.167E-03
   8 F= -.11452335E+03 E0= -.11452335E+03  d E =-.948703E-43
 Finite differences progress:
  Degree of freedom:   4/ 14
  Displacement:        1/  2
  Total:               7/ 28
 bond charge predicted
       N       E                     dE             d eps       ncg     rms          rms(c)
DAV:   1    -0.114623557358E+03   -0.10021E+00   -0.34868E+00  4656   0.894E+00    0.167E+00
DAV:   2    -0.114553565645E+03    0.69992E-01   -0.16854E-01  5024   0.249E+00    0.101E+00
DAV:   3    -0.114526886052E+03    0.26680E-01   -0.13826E-01  5104   0.218E+00    0.390E-01
DAV:   4    -0.114525291132E+03    0.15949E-02   -0.27751E-02  4752   0.922E-01    0.322E-01
DAV:   5    -0.114523346578E+03    0.19446E-02   -0.15160E-02  5120   0.583E-01    0.719E-02
DAV:   6    -0.114523455998E+03   -0.10942E-03   -0.17744E-03  4848   0.219E-01    0.810E-02
DAV:   7    -0.114523363434E+03    0.92564E-04   -0.14500E-04  5072   0.678E-02    0.367E-02
DAV:   8    -0.114523345907E+03    0.17528E-04   -0.20267E-04  5088   0.691E-02    0.110E-02
DAV:   9    -0.114523346344E+03   -0.43781E-06   -0.16251E-05  4944   0.236E-02    0.463E-03
DAV:  10    -0.114523346221E+03    0.12303E-06   -0.26217E-06  5104   0.713E-03    0.104E-03
DAV:  11    -0.114523346239E+03   -0.17446E-07   -0.20556E-07  5040   0.226E-03    0.537E-04
DAV:  12    -0.114523346240E+03   -0.11778E-08   -0.12139E-08  3856   0.616E-04
   9 F= -.11452335E+03 E0= -.11452335E+03  d E =-.509816E-50
 Finite differences progress:
  Degree of freedom:   4/ 14
  Displacement:        2/  2
  Total:               8/ 28
 bond charge predicted
       N       E                     dE             d eps       ncg     rms          rms(c)
DAV:   1    -0.114567978318E+03   -0.44632E-01   -0.26941E+00  7440   0.811E+00    0.115E+00
DAV:   2    -0.114539652049E+03    0.28326E-01   -0.83683E-02  8160   0.160E+00    0.680E-01
DAV:   3    -0.114527273145E+03    0.12379E-01   -0.46723E-02  8192   0.122E+00    0.197E-01
DAV:   4    -0.114526974877E+03    0.29827E-03   -0.94467E-03  7904   0.533E-01    0.147E-01
DAV:   5    -0.114526681143E+03    0.29373E-03   -0.34473E-03  8192   0.270E-01    0.372E-02
DAV:   6    -0.114526675204E+03    0.59382E-05   -0.29050E-04  7968   0.961E-02    0.226E-02
DAV:   7    -0.114526672955E+03    0.22493E-05   -0.61234E-05  8192   0.385E-02    0.523E-03
DAV:   8    -0.114526673857E+03   -0.90242E-06   -0.71842E-06  7984   0.134E-02    0.358E-03
DAV:   9    -0.114526674004E+03   -0.14650E-06   -0.66682E-07  8368   0.414E-03    0.816E-04
DAV:  10    -0.114526674002E+03    0.19336E-08   -0.13798E-07  8080   0.188E-03    0.361E-04
DAV:  11    -0.114526674004E+03   -0.15516E-08   -0.14314E-08  6304   0.551E-04
  10 F= -.11452667E+03 E0= -.11452667E+03  d E =-.230562E-28
 Finite differences progress:
  Degree of freedom:   5/ 14
  Displacement:        1/  2
  Total:               9/ 28
 bond charge predicted
       N       E                     dE             d eps       ncg     rms          rms(c)
DAV:   1    -0.114598355754E+03   -0.71682E-01   -0.30366E+00  7440   0.792E+00    0.157E+00
DAV:   2    -0.114549983520E+03    0.48372E-01   -0.91381E-02  8032   0.146E+00    0.916E-01
DAV:   3    -0.114526249359E+03    0.23734E-01   -0.50325E-02  8144   0.112E+00    0.926E-02
DAV:   4    -0.114526704018E+03   -0.45466E-03   -0.73056E-03  7920   0.407E-01    0.632E-02
DAV:   5    -0.114526666585E+03    0.37433E-04   -0.22858E-04  8256   0.764E-02    0.159E-02
DAV:   6    -0.114526673499E+03   -0.69141E-05   -0.51194E-05  7904   0.310E-02    0.933E-03
DAV:   7    -0.114526674046E+03   -0.54659E-06   -0.27250E-06  8160   0.858E-03    0.141E-03
DAV:   8    -0.114526673987E+03    0.59046E-07   -0.48736E-07  8128   0.313E-03    0.788E-04
DAV:   9    -0.114526673997E+03   -0.10214E-07   -0.53812E-08  8128   0.114E-03    0.244E-04
DAV:  10    -0.114526674001E+03   -0.38849E-08   -0.35450E-09  6144   0.414E-04
  11 F= -.11452667E+03 E0= -.11452667E+03  d E =-.136050E-28
 Finite differences progress:
  Degree of freedom:   5/ 14
  Displacement:        2/  2
  Total:              10/ 28
 bond charge predicted
       N       E                     dE             d eps       ncg     rms          rms(c)
DAV:   1    -0.114560480386E+03   -0.33806E-01   -0.25561E+00  7424   0.726E+00    0.111E+00
DAV:   2    -0.114538248087E+03    0.22232E-01   -0.66428E-02  8112   0.121E+00    0.647E-01
DAV:   3    -0.114526434046E+03    0.11814E-01   -0.24403E-02  8096   0.784E-01    0.637E-02
DAV:   4    -0.114526689932E+03   -0.25589E-03   -0.36892E-03  7952   0.289E-01    0.458E-02
DAV:   5    -0.114526669700E+03    0.20232E-04   -0.10694E-04  8384   0.527E-02    0.127E-02
DAV:   6    -0.114526673502E+03   -0.38021E-05   -0.24939E-05  7952   0.214E-02    0.630E-03
DAV:   7    -0.114526673966E+03   -0.46332E-06   -0.11150E-06  8192   0.535E-03    0.120E-03
DAV:   8    -0.114526673987E+03   -0.21407E-07   -0.14884E-07  8224   0.183E-03    0.469E-04
DAV:   9    -0.114526673994E+03   -0.72064E-08   -0.16441E-08  7088   0.654E-04
  12 F= -.11452667E+03 E0= -.11452667E+03  d E =-.358202E-28
 Finite differences progress:
  Degree of freedom:   6/ 14
  Displacement:        1/  2
  Total:              11/ 28
 bond charge predicted
       N       E                     dE             d eps       ncg     rms          rms(c)
DAV:   1    -0.114598394982E+03   -0.71721E-01   -0.30406E+00  7408   0.792E+00    0.157E+00
DAV:   2    -0.114549988507E+03    0.48406E-01   -0.91300E-02  8048   0.146E+00    0.915E-01
DAV:   3    -0.114526258800E+03    0.23730E-01   -0.50024E-02  8080   0.112E+00    0.925E-02
DAV:   4    -0.114526704327E+03   -0.44553E-03   -0.71935E-03  7984   0.403E-01    0.626E-02
DAV:   5    -0.114526666444E+03    0.37883E-04   -0.22603E-04  8288   0.761E-02    0.156E-02
DAV:   6    -0.114526673483E+03   -0.70391E-05   -0.51157E-05  8048   0.309E-02    0.926E-03
DAV:   7    -0.114526674048E+03   -0.56444E-06   -0.27119E-06  8144   0.852E-03    0.146E-03
DAV:   8    -0.114526673978E+03    0.69331E-07   -0.47886E-07  8160   0.319E-03    0.794E-04
DAV:   9    -0.114526673991E+03   -0.12866E-07   -0.62689E-08  8128   0.120E-03    0.293E-04
DAV:  10    -0.114526673995E+03   -0.36835E-08   -0.45120E-09  6144   0.496E-04
  13 F= -.11452667E+03 E0= -.11452667E+03  d E =-.301679E-28
 Finite differences progress:
  Degree of freedom:   6/ 14
  Displacement:        2/  2
  Total:              12/ 28
 bond charge predicted
       N       E                     dE             d eps       ncg     rms          rms(c)
DAV:   1    -0.114556836007E+03   -0.30162E-01   -0.12417E+00  4672   0.552E+00    0.675E-01
DAV:   2    -0.114548010984E+03    0.88250E-02   -0.36060E-02  5104   0.911E-01    0.427E-01
DAV:   3    -0.114539532520E+03    0.84785E-02   -0.11893E-02  5104   0.564E-01    0.579E-02
DAV:   4    -0.114539526313E+03    0.62068E-05   -0.22387E-03  5104   0.229E-01    0.335E-02
DAV:   5    -0.114539511793E+03    0.14521E-04   -0.27428E-04  5120   0.816E-02    0.132E-02
DAV:   6    -0.114539507431E+03    0.43614E-05   -0.27820E-05  5392   0.323E-02    0.673E-03
DAV:   7    -0.114539504299E+03    0.31327E-05   -0.70984E-06  5104   0.129E-02    0.150E-03
DAV:   8    -0.114539504091E+03    0.20775E-06   -0.89279E-07  5104   0.436E-03    0.960E-04
DAV:   9    -0.114539503764E+03    0.32680E-06   -0.11125E-07  5472   0.201E-03    0.403E-04
DAV:  10    -0.114539503690E+03    0.74136E-07   -0.28971E-08  4960   0.102E-03    0.196E-04
DAV:  11    -0.114539503667E+03    0.22625E-07   -0.56089E-09  3840   0.388E-04    0.772E-05
DAV:  12    -0.114539503658E+03    0.95733E-08   -0.20449E-09  3792   0.237E-04
  14 F= -.11453950E+03 E0= -.11453950E+03  d E =-.296556E-32
 Finite differences progress:
  Degree of freedom:   7/ 14
  Displacement:        1/  2
  Total:              13/ 28
 bond charge predicted
       N       E                     dE             d eps       ncg     rms          rms(c)
DAV:   1    -0.114540164271E+03   -0.66060E-03   -0.16008E-01  4016   0.188E+00    0.191E-01
DAV:   2    -0.114539970512E+03    0.19376E-03   -0.94302E-03  5120   0.522E-01    0.132E-01
DAV:   3    -0.114539594841E+03    0.37567E-03   -0.16820E-03  5104   0.261E-01    0.415E-02
DAV:   4    -0.114539593157E+03    0.16844E-05   -0.42217E-04  4816   0.112E-01    0.285E-02
DAV:   5    -0.114539588980E+03    0.41764E-05   -0.10049E-04  5248   0.515E-02    0.110E-02
DAV:   6    -0.114539589963E+03   -0.98261E-06   -0.12424E-05  4912   0.212E-02    0.526E-03
DAV:   7    -0.114539590509E+03   -0.54551E-06   -0.39479E-06  5536   0.999E-03    0.201E-03
DAV:   8    -0.114539590559E+03   -0.50392E-07   -0.77355E-07  4960   0.475E-03    0.112E-03
DAV:   9    -0.114539590577E+03   -0.18330E-07   -0.19358E-07  5360   0.227E-03    0.456E-04
DAV:  10    -0.114539590584E+03   -0.66484E-08   -0.41164E-08  5024   0.109E-03
  15 F= -.11453959E+03 E0= -.11453959E+03  d E =-.351118E-28
 Finite differences progress:
  Degree of freedom:   7/ 14
  Displacement:        2/  2
  Total:              14/ 28
 bond charge predicted
       N       E                     dE             d eps       ncg     rms          rms(c)
DAV:   1    -0.114539713495E+03   -0.12292E-03   -0.11874E-01  4368   0.167E+00    0.142E-01
DAV:   2    -0.114539954189E+03   -0.24069E-03   -0.85914E-03  5120   0.478E-01    0.991E-02
DAV:   3    -0.114539737780E+03    0.21641E-03   -0.68840E-04  5104   0.177E-01    0.348E-02
DAV:   4    -0.114539735627E+03    0.21531E-05   -0.21222E-04  5120   0.849E-02    0.209E-02
DAV:   5    -0.114539733663E+03    0.19638E-05   -0.63069E-05  5472   0.434E-02    0.761E-03
DAV:   6    -0.114539734141E+03   -0.47849E-06   -0.89722E-06  5152   0.176E-02    0.324E-03
DAV:   7    -0.114539734472E+03   -0.33110E-06   -0.18001E-06  5120   0.628E-03    0.137E-03
DAV:   8    -0.114539734490E+03   -0.17732E-07   -0.18102E-07  5520   0.269E-03    0.542E-04
DAV:   9    -0.114539734520E+03   -0.29650E-07   -0.45461E-08  5120   0.106E-03    0.240E-04
DAV:  10    -0.114539734525E+03   -0.52851E-08   -0.56989E-09  3840   0.418E-04
  16 F= -.11453973E+03 E0= -.11453973E+03  d E =-.630965E-30
 Finite differences progress:
  Degree of freedom:   8/ 14
  Displacement:        1/  2
  Total:              15/ 28
 bond charge predicted
       N       E                     dE             d eps       ncg     rms          rms(c)
DAV:   1    -0.114540325545E+03   -0.59103E-03   -0.16716E-01  3952   0.192E+00    0.190E-01
DAV:   2    -0.114540296605E+03    0.28940E-04   -0.10238E-02  5120   0.546E-01    0.137E-01
DAV:   3    -0.114539894068E+03    0.40254E-03   -0.15195E-03  5072   0.234E-01    0.420E-02
DAV:   4    -0.114539883193E+03    0.10874E-04   -0.33700E-04  5184   0.107E-01    0.276E-02
DAV:   5    -0.114539878341E+03    0.48520E-05   -0.13914E-04  5088   0.587E-02    0.118E-02
DAV:   6    -0.114539878392E+03   -0.50199E-07   -0.17361E-05  5120   0.240E-02    0.473E-03
DAV:   7    -0.114539879038E+03   -0.64621E-06   -0.45741E-06  5120   0.101E-02    0.192E-03
DAV:   8    -0.114539879094E+03   -0.55813E-07   -0.43076E-07  5104   0.362E-03    0.101E-03
DAV:   9    -0.114539879140E+03   -0.46055E-07   -0.18534E-07  5120   0.205E-03    0.390E-04
DAV:  10    -0.114539879142E+03   -0.23306E-08   -0.19835E-08  4624   0.815E-04
  17 F= -.11453988E+03 E0= -.11453988E+03  d E =-.183663E-30
 Finite differences progress:
  Degree of freedom:   8/ 14
  Displacement:        2/  2
  Total:              16/ 28
 bond charge predicted
       N       E                     dE             d eps       ncg     rms          rms(c)
DAV:   1    -0.114540642992E+03   -0.76385E-03   -0.12049E-01  6496   0.161E+00    0.132E-01
DAV:   2    -0.114540980039E+03   -0.33705E-03   -0.67449E-03  8144   0.416E-01    0.870E-02
DAV:   3    -0.114540863271E+03    0.11677E-03   -0.41455E-04  7920   0.144E-01    0.280E-02
DAV:   4    -0.114540873844E+03   -0.10573E-04   -0.16699E-04  8144   0.694E-02    0.167E-02
DAV:   5    -0.114540871981E+03    0.18633E-05   -0.24647E-05  7824   0.272E-02    0.669E-03
DAV:   6    -0.114540872354E+03   -0.37291E-06   -0.49079E-06  8192   0.115E-02    0.230E-03
DAV:   7    -0.114540872479E+03   -0.12507E-06   -0.55295E-07  8048   0.439E-03    0.926E-04
DAV:   8    -0.114540872515E+03   -0.36464E-07   -0.21335E-07  8432   0.246E-03    0.575E-04
DAV:   9    -0.114540872521E+03   -0.56189E-08   -0.45124E-08  8016   0.124E-03
  18 F= -.11454087E+03 E0= -.11454087E+03  d E =-.512715E-30
 Finite differences progress:
  Degree of freedom:   9/ 14
  Displacement:        1/  2
  Total:              17/ 28
 bond charge predicted
       N       E                     dE             d eps       ncg     rms          rms(c)
DAV:   1    -0.114540762436E+03    0.11008E-03   -0.15245E-01  6144   0.169E+00    0.179E-01
DAV:   2    -0.114540900396E+03   -0.13796E-03   -0.41979E-03  8192   0.337E-01    0.110E-01
DAV:   3    -0.114540866686E+03    0.33710E-04   -0.64453E-04  7616   0.136E-01    0.170E-02
DAV:   4    -0.114540869594E+03   -0.29076E-05   -0.97221E-05  8192   0.462E-02    0.122E-02
DAV:   5    -0.114540872485E+03   -0.28916E-05   -0.71924E-06  8096   0.133E-02    0.183E-03
DAV:   6    -0.114540872521E+03   -0.35906E-07   -0.68131E-07  8192   0.359E-03    0.903E-04
DAV:   7    -0.114540872528E+03   -0.71682E-08   -0.40075E-08  8112   0.971E-04
  19 F= -.11454087E+03 E0= -.11454087E+03  d E =-.543997E-30
 Finite differences progress:
  Degree of freedom:   9/ 14
  Displacement:        2/  2
  Total:              18/ 28
 bond charge predicted
       N       E                     dE             d eps       ncg     rms          rms(c)
DAV:   1    -0.114540708543E+03    0.16398E-03   -0.99479E-01  3840   0.455E+00    0.174E-01
DAV:   2    -0.114540323144E+03    0.38540E-03   -0.95913E-03  5120   0.496E-01    0.102E-01
DAV:   3    -0.114539990790E+03    0.33235E-03   -0.15405E-03  5088   0.239E-01    0.256E-02
DAV:   4    -0.114540018127E+03   -0.27337E-04   -0.40883E-04  5040   0.101E-01    0.200E-02
DAV:   5    -0.114540026297E+03   -0.81699E-05   -0.49756E-05  5120   0.331E-02    0.742E-03
DAV:   6    -0.114540025693E+03    0.60403E-06   -0.52756E-06  5072   0.126E-02    0.431E-03
DAV:   7    -0.114540027385E+03   -0.16924E-05   -0.29698E-06  5120   0.939E-03    0.930E-04
DAV:   8    -0.114540027499E+03   -0.11367E-06   -0.51054E-07  5040   0.403E-03    0.626E-04
DAV:   9    -0.114540027682E+03   -0.18310E-06   -0.69194E-08  5120   0.127E-03    0.291E-04
DAV:  10    -0.114540027774E+03   -0.91734E-07   -0.80784E-09  3760   0.617E-04    0.101E-04
DAV:  11    -0.114540027793E+03   -0.19576E-07   -0.35305E-09  3792   0.283E-04    0.458E-05
DAV:  12    -0.114540027796E+03   -0.25952E-08   -0.45550E-10  3616   0.141E-04
  20 F= -.11454003E+03 E0= -.11454003E+03  d E =-.852505E-28
 Finite differences progress:
  Degree of freedom:  10/ 14
  Displacement:        1/  2
  Total:              19/ 28
 bond charge predicted
       N       E                     dE             d eps       ncg     rms          rms(c)
DAV:   1    -0.114544820462E+03   -0.47927E-02   -0.25852E+00  3840   0.726E+00    0.320E-01
DAV:   2    -0.114541091619E+03    0.37288E-02   -0.21790E-02  5120   0.780E-01    0.168E-01
DAV:   3    -0.114539872402E+03    0.12192E-02   -0.56559E-03  5120   0.436E-01    0.400E-02
DAV:   4    -0.114539942800E+03   -0.70398E-04   -0.12366E-03  4960   0.180E-01    0.313E-02
DAV:   5    -0.114539941551E+03    0.12494E-05   -0.12073E-04  5120   0.493E-02    0.120E-02
DAV:   6    -0.114539937782E+03    0.37684E-05   -0.13733E-05  5024   0.192E-02    0.602E-03
DAV:   7    -0.114539937755E+03    0.26821E-07   -0.48239E-06  6096   0.136E-02    0.180E-03
DAV:   8    -0.114539937788E+03   -0.32127E-07   -0.89408E-07  5040   0.536E-03    0.899E-04
DAV:   9    -0.114539937814E+03   -0.25955E-07   -0.22331E-07  5136   0.215E-03    0.534E-04
DAV:  10    -0.114539937816E+03   -0.21091E-08   -0.14990E-08  3856   0.957E-04
  21 F= -.11453994E+03 E0= -.11453994E+03  d E =-.578864E-35
 Finite differences progress:
  Degree of freedom:  10/ 14
  Displacement:        2/  2
  Total:              20/ 28
 bond charge predicted
       N       E                     dE             d eps       ncg     rms          rms(c)
DAV:   1    -0.114542762598E+03   -0.28248E-02   -0.18437E+00  3840   0.608E+00    0.176E-01
DAV:   2    -0.114542448656E+03    0.31394E-03   -0.12518E-02  5120   0.524E-01    0.942E-02
DAV:   3    -0.114542055439E+03    0.39322E-03   -0.16174E-03  5072   0.228E-01    0.208E-02
DAV:   4    -0.114542086449E+03   -0.31009E-04   -0.36385E-04  4976   0.902E-02    0.203E-02
DAV:   5    -0.114542084297E+03    0.21516E-05   -0.19815E-05  5120   0.210E-02    0.932E-03
DAV:   6    -0.114542084144E+03    0.15300E-06   -0.16827E-06  5056   0.869E-03    0.435E-03
DAV:   7    -0.114542084246E+03   -0.10180E-06   -0.77251E-07  5120   0.535E-03    0.998E-04
DAV:   8    -0.114542084259E+03   -0.13242E-07   -0.17146E-07  4688   0.215E-03    0.591E-04
DAV:   9    -0.114542084260E+03   -0.49249E-09   -0.91582E-09  3840   0.574E-04
  22 F= -.11454208E+03 E0= -.11454208E+03  d E =-.399584E-31
 Finite differences progress:
  Degree of freedom:  11/ 14
  Displacement:        1/  2
  Total:              21/ 28
 bond charge predicted
       N       E                     dE             d eps       ncg     rms          rms(c)
DAV:   1    -0.114544667695E+03   -0.25834E-02   -0.26333E+00  3840   0.709E+00    0.252E-01
DAV:   2    -0.114542913118E+03    0.17546E-02   -0.15104E-02  5120   0.630E-01    0.138E-01
DAV:   3    -0.114542050208E+03    0.86291E-03   -0.35220E-03  5120   0.339E-01    0.304E-02
DAV:   4    -0.114542093718E+03   -0.43510E-04   -0.68219E-04  4944   0.130E-01    0.269E-02
DAV:   5    -0.114542092384E+03    0.13341E-05   -0.64059E-05  5120   0.381E-02    0.101E-02
DAV:   6    -0.114542091144E+03    0.12404E-05   -0.71834E-06  5056   0.151E-02    0.545E-03
DAV:   7    -0.114542091214E+03   -0.69704E-07   -0.31506E-06  5632   0.103E-02    0.132E-03
DAV:   8    -0.114542091262E+03   -0.48980E-07   -0.63476E-07  5024   0.423E-03    0.844E-04
DAV:   9    -0.114542091283E+03   -0.20678E-07   -0.88109E-08  5184   0.141E-03    0.470E-04
DAV:  10    -0.114542091287E+03   -0.36653E-08   -0.80267E-09  3808   0.648E-04
  23 F= -.11454209E+03 E0= -.11454209E+03  d E =-.216514E-32
 Finite differences progress:
  Degree of freedom:  11/ 14
  Displacement:        2/  2
  Total:              22/ 28
 bond charge predicted
       N       E                     dE             d eps       ncg     rms          rms(c)
DAV:   1    -0.114541776211E+03    0.31507E-03   -0.18227E+00  6144   0.613E+00    0.207E-01
DAV:   2    -0.114541190773E+03    0.58544E-03   -0.13313E-02  8192   0.551E-01    0.113E-01
DAV:   3    -0.114540644777E+03    0.54600E-03   -0.19096E-03  8112   0.238E-01    0.222E-02
DAV:   4    -0.114540676765E+03   -0.31989E-04   -0.38614E-04  8128   0.913E-02    0.199E-02
DAV:   5    -0.114540675482E+03    0.12835E-05   -0.20066E-05  8192   0.227E-02    0.748E-03
DAV:   6    -0.114540675153E+03    0.32910E-06   -0.23303E-06  8128   0.983E-03    0.346E-03
DAV:   7    -0.114540675244E+03   -0.91463E-07   -0.98678E-07  8624   0.512E-03    0.101E-03
DAV:   8    -0.114540675241E+03    0.29841E-08   -0.11242E-07  8048   0.198E-03    0.583E-04
DAV:   9    -0.114540675246E+03   -0.48512E-08   -0.19635E-08  6768   0.678E-04
  24 F= -.11454068E+03 E0= -.11454068E+03  d E =-.390170E-35
 Finite differences progress:
  Degree of freedom:  12/ 14
  Displacement:        1/  2
  Total:              23/ 28
 bond charge predicted
       N       E                     dE             d eps       ncg     rms          rms(c)
DAV:   1    -0.114544634532E+03   -0.39593E-02   -0.23032E+00  6144   0.683E+00    0.328E-01
DAV:   2    -0.114541942047E+03    0.26925E-02   -0.17557E-02  8192   0.648E-01    0.176E-01
DAV:   3    -0.114540641864E+03    0.13002E-02   -0.45022E-03  7968   0.333E-01    0.356E-02
DAV:   4    -0.114540676226E+03   -0.34361E-04   -0.55287E-04  8176   0.107E-01    0.260E-02
DAV:   5    -0.114540675447E+03    0.77812E-06   -0.17986E-05  8128   0.193E-02    0.462E-03
DAV:   6    -0.114540675242E+03    0.20559E-06   -0.18492E-06  8368   0.699E-03    0.265E-03
DAV:   7    -0.114540675250E+03   -0.80117E-08   -0.30744E-07  8128   0.281E-03    0.892E-04
DAV:   8    -0.114540675243E+03    0.69226E-08   -0.20850E-08  7600   0.673E-04
  25 F= -.11454068E+03 E0= -.11454068E+03  d E =-.397873E-35
 Finite differences progress:
  Degree of freedom:  12/ 14
  Displacement:        2/  2
  Total:              24/ 28
 bond charge predicted
       N       E                     dE             d eps       ncg     rms          rms(c)
DAV:   1    -0.114540852845E+03   -0.17759E-03   -0.18007E+00  3856   0.623E+00    0.205E-01
DAV:   2    -0.114540200867E+03    0.65198E-03   -0.15427E-02  5120   0.608E-01    0.121E-01
DAV:   3    -0.114539496227E+03    0.70464E-03   -0.24279E-03  5072   0.278E-01    0.324E-02
DAV:   4    -0.114539516712E+03   -0.20485E-04   -0.56698E-04  5072   0.116E-01    0.228E-02
DAV:   5    -0.114539539439E+03   -0.22727E-04   -0.10081E-04  5120   0.496E-02    0.848E-03
DAV:   6    -0.114539540741E+03   -0.13023E-05   -0.16063E-05  5120   0.189E-02    0.509E-03
DAV:   7    -0.114539545093E+03   -0.43526E-05   -0.47777E-06  5120   0.112E-02    0.114E-03
DAV:   8    -0.114539545692E+03   -0.59842E-06   -0.72798E-07  5088   0.459E-03    0.734E-04
DAV:   9    -0.114539546117E+03   -0.42503E-06   -0.11920E-07  5120   0.172E-03    0.370E-04
DAV:  10    -0.114539546266E+03   -0.14965E-06   -0.16319E-08  3808   0.905E-04    0.116E-04
DAV:  11    -0.114539546300E+03   -0.33286E-07   -0.62893E-09  3744   0.374E-04    0.497E-05
DAV:  12    -0.114539546297E+03    0.23556E-08   -0.77033E-10  3680   0.169E-04
  26 F= -.11453955E+03 E0= -.11453955E+03  d E =-.815908E-32
 Finite differences progress:
  Degree of freedom:  13/ 14
  Displacement:        1/  2
  Total:              25/ 28
 bond charge predicted
       N       E                     dE             d eps       ncg     rms          rms(c)
DAV:   1    -0.114545611763E+03   -0.60655E-02   -0.21108E+00  3872   0.613E+00    0.345E-01
DAV:   2    -0.114540746616E+03    0.48651E-02   -0.19681E-02  5120   0.720E-01    0.174E-01
DAV:   3    -0.114539536244E+03    0.12104E-02   -0.59946E-03  5120   0.411E-01    0.402E-02
DAV:   4    -0.114539596228E+03   -0.59985E-04   -0.11039E-03  4848   0.167E-01    0.286E-02
DAV:   5    -0.114539599629E+03   -0.34010E-05   -0.95712E-05  5120   0.459E-02    0.116E-02
DAV:   6    -0.114539594916E+03    0.47131E-05   -0.19486E-05  5040   0.216E-02    0.511E-03
DAV:   7    -0.114539594999E+03   -0.82482E-07   -0.32794E-06  5680   0.111E-02    0.152E-03
DAV:   8    -0.114539595003E+03   -0.40973E-08   -0.50282E-07  5056   0.401E-03    0.704E-04
DAV:   9    -0.114539595012E+03   -0.95306E-08   -0.15953E-07  5152   0.196E-03    0.504E-04
DAV:  10    -0.114539595008E+03    0.40391E-08   -0.24401E-08  4464   0.116E-03
  27 F= -.11453960E+03 E0= -.11453960E+03  d E =-.851168E-31
 Finite differences progress:
  Degree of freedom:  13/ 14
  Displacement:        2/  2
  Total:              26/ 28
 bond charge predicted
       N       E                     dE             d eps       ncg     rms          rms(c)
DAV:   1    -0.114544443851E+03   -0.48488E-02   -0.18714E+00  2320   0.588E+00    0.164E-01
DAV:   2    -0.114544157200E+03    0.28665E-03   -0.11478E-02  3072   0.478E-01    0.100E-01
DAV:   3    -0.114543120725E+03    0.10365E-02   -0.22587E-03  2976   0.241E-01    0.256E-02
DAV:   4    -0.114543116154E+03    0.45712E-05   -0.32904E-04  3056   0.825E-02    0.204E-02
DAV:   5    -0.114543050339E+03    0.65815E-04   -0.81169E-05  3088   0.538E-02    0.382E-03
DAV:   6    -0.114543040641E+03    0.96979E-05   -0.33501E-05  3072   0.300E-02    0.643E-03
DAV:   7    -0.114543036491E+03    0.41500E-05   -0.65995E-06  3024   0.187E-02    0.122E-03
DAV:   8    -0.114543035354E+03    0.11366E-05   -0.34354E-06  3120   0.152E-02    0.160E-03
DAV:   9    -0.114543035784E+03   -0.43001E-06   -0.25038E-06  2880   0.785E-03    0.110E-03
DAV:  10    -0.114543035898E+03   -0.11389E-06   -0.88690E-08  3072   0.169E-03    0.429E-04
DAV:  11    -0.114543036040E+03   -0.14201E-06   -0.36829E-08  2960   0.105E-03    0.236E-04
DAV:  12    -0.114543036049E+03   -0.84492E-08   -0.72098E-09  2256   0.441E-04
  28 F= -.11454304E+03 E0= -.11454304E+03  d E =-.301917E-32
 Finite differences progress:
  Degree of freedom:  14/ 14
  Displacement:        1/  2
  Total:              27/ 28
 bond charge predicted
       N       E                     dE             d eps       ncg     rms          rms(c)
DAV:   1    -0.114544155128E+03   -0.11191E-02   -0.31601E+00  2304   0.717E+00    0.231E-01
DAV:   2    -0.114543636417E+03    0.51871E-03   -0.13421E-02  3072   0.510E-01    0.127E-01
DAV:   3    -0.114543020666E+03    0.61575E-03   -0.21722E-03  3008   0.224E-01    0.318E-02
DAV:   4    -0.114543037284E+03   -0.16618E-04   -0.27787E-04  3056   0.728E-02    0.267E-02
DAV:   5    -0.114543035894E+03    0.13896E-05   -0.12047E-05  3056   0.156E-02    0.103E-02
DAV:   6    -0.114543035998E+03   -0.10326E-06   -0.26115E-06  3056   0.816E-03    0.157E-03
DAV:   7    -0.114543036089E+03   -0.91221E-07   -0.40025E-07  3072   0.287E-03    0.173E-03
DAV:   8    -0.114543036071E+03    0.18214E-07   -0.18682E-08  2944   0.728E-04    0.746E-04
DAV:   9    -0.114543036060E+03    0.10124E-07   -0.15940E-08  2816   0.680E-04    0.974E-05
DAV:  10    -0.114543036060E+03    0.71805E-09   -0.42307E-09  2304   0.313E-04
  29 F= -.11454304E+03 E0= -.11454304E+03  d E =-.300888E-32
 Finite differences progress:
  Degree of freedom:  14/ 14
  Displacement:        2/  2
  Total:              28/ 28
