<?xml version="1.0" encoding="ISO-8859-1"?>
<modeling>
 <generator>
  <i name="program" type="string">vasp </i>
  <i name="version" type="string">5.4.1  </i>
  <i name="subversion" type="string">05Feb16 (build Mar 26 2016 11:58:25) complex                          parallel </i>
  <i name="platform" type="string">IFC91_ompi </i>
  <i name="date" type="string">2016 11 24 </i>
  <i name="time" type="string">20:22:52 </i>
 </generator>
 <incar>
  <i type="string" name="SYSTEM"> POSCAR (VASP)</i>
  <i type="string" name="PREC">accurate</i>
  <i type="int" name="IALGO">    38</i>
  <i type="logical" name="ADDGRID"> T  </i>
  <i type="int" name="IBRION">     6</i>
  <i name="EDIFF">      0.00000001</i>
  <i type="int" name="ISIF">     3</i>
  <i name="ENCUT">    500.00000000</i>
  <i type="logical" name="LREAL"> F  </i>
  <i type="int" name="ISMEAR">     0</i>
  <i name="SIGMA">      0.01000000</i>
  <i type="logical" name="LWAVE"> F  </i>
  <i type="logical" name="LCHARG"> F  </i>
  <v type="int" name="KPOINT_BSE">    -1     0     0     0</v>
 </incar>
 <kpoints>
  <generation param="Monkhorst-Pack">
   <v type="int" name="divisions">       4        4        8 </v>
   <v name="usershift">      0.50000000       0.50000000       0.00000000 </v>
   <v name="genvec1">      0.25000000       0.00000000       0.00000000 </v>
   <v name="genvec2">      0.00000000       0.25000000       0.00000000 </v>
   <v name="genvec3">      0.00000000       0.00000000       0.12500000 </v>
   <v name="shift">      0.00000000       0.00000000       0.50000000 </v>
  </generation>
  <varray name="kpointlist" >
   <v>       0.00000000       0.00000000       0.06250000 </v>
   <v>       0.25000000       0.00000000       0.06250000 </v>
   <v>       0.50000000       0.00000000       0.06250000 </v>
   <v>       0.25000000       0.25000000       0.06250000 </v>
   <v>       0.00000000       0.00000000       0.18750000 </v>
   <v>       0.25000000       0.00000000       0.18750000 </v>
   <v>       0.50000000       0.00000000       0.18750000 </v>
   <v>       0.25000000       0.25000000       0.18750000 </v>
   <v>       0.00000000       0.00000000       0.31250000 </v>
   <v>       0.25000000       0.00000000       0.31250000 </v>
   <v>       0.50000000       0.00000000       0.31250000 </v>
   <v>       0.25000000       0.25000000       0.31250000 </v>
   <v>       0.00000000       0.00000000       0.43750000 </v>
   <v>       0.25000000       0.00000000       0.43750000 </v>
   <v>       0.50000000       0.00000000       0.43750000 </v>
   <v>       0.25000000       0.25000000       0.43750000 </v>
  </varray>
  <varray name="weights" >
   <v>       0.01562500 </v>
   <v>       0.09375000 </v>
   <v>       0.04687500 </v>
   <v>       0.09375000 </v>
   <v>       0.01562500 </v>
   <v>       0.09375000 </v>
   <v>       0.04687500 </v>
   <v>       0.09375000 </v>
   <v>       0.01562500 </v>
   <v>       0.09375000 </v>
   <v>       0.04687500 </v>
   <v>       0.09375000 </v>
   <v>       0.01562500 </v>
   <v>       0.09375000 </v>
   <v>       0.04687500 </v>
   <v>       0.09375000 </v>
  </varray>
 </kpoints>
 <parameters>
  <separator name="general" >
   <i type="string" name="SYSTEM">POSCAR (VASP)</i>
   <i type="logical" name="LCOMPAT"> F  </i>
  </separator>
  <separator name="electronic" >
   <i type="string" name="PREC">accura</i>
   <i name="ENMAX">    500.00000000</i>
   <i name="ENAUG">    627.11200000</i>
   <i name="EDIFF">      0.00000001</i>
   <i type="int" name="IALGO">    38</i>
   <i type="int" name="IWAVPR">    11</i>
   <i type="int" name="NBANDS">    48</i>
   <i name="NELECT">     64.00000000</i>
   <i type="int" name="TURBO">     0</i>
   <i type="int" name="IRESTART">     0</i>
   <i type="int" name="NREBOOT">     0</i>
   <i type="int" name="NMIN">     0</i>
   <i name="EREF">      0.00000000</i>
   <separator name="electronic smearing" >
    <i type="int" name="ISMEAR">     0</i>
    <i name="SIGMA">      0.01000000</i>
    <i name="KSPACING">      0.50000000</i>
    <i type="logical" name="KGAMMA"> T  </i>
   </separator>
   <separator name="electronic projectors" >
    <i type="logical" name="LREAL"> F  </i>
    <v name="ROPT">      0.00000000      0.00000000</v>
    <i type="int" name="LMAXPAW">  -100</i>
    <i type="int" name="LMAXMIX">     2</i>
    <i type="logical" name="NLSPLINE"> F  </i>
   </separator>
   <separator name="electronic startup" >
    <i type="int" name="ISTART">     0</i>
    <i type="int" name="ICHARG">     2</i>
    <i type="int" name="INIWAV">     1</i>
   </separator>
   <separator name="electronic spin" >
    <i type="int" name="ISPIN">     1</i>
    <i type="logical" name="LNONCOLLINEAR"> F  </i>
    <v name="MAGMOM">      1.00000000      1.00000000      1.00000000      1.00000000      1.00000000      1.00000000      1.00000000      1.00000000      1.00000000      1.00000000      1.00000000      1.00000000      1.00000000      1.00000000</v>
    <i name="NUPDOWN">     -1.00000000</i>
    <i type="logical" name="LSORBIT"> F  </i>
    <v name="SAXIS">      0.00000000      0.00000000      1.00000000</v>
    <i type="logical" name="LSPIRAL"> F  </i>
    <v name="QSPIRAL">      0.00000000      0.00000000      0.00000000</v>
    <i type="logical" name="LZEROZ"> F  </i>
   </separator>
   <separator name="electronic exchange-correlation" >
    <i type="logical" name="LASPH"> F  </i>
    <i type="logical" name="LMETAGGA"> F  </i>
   </separator>
   <separator name="electronic convergence" >
    <i type="int" name="NELM">    60</i>
    <i type="int" name="NELMDL">    -5</i>
    <i type="int" name="NELMIN">     2</i>
    <i name="ENINI">    500.00000000</i>
    <separator name="electronic convergence detail" >
     <i type="logical" name="LDIAG"> T  </i>
     <i type="logical" name="LSUBROT"> F  </i>
     <i name="WEIMIN">      0.00100000</i>
     <i name="EBREAK">      0.00000000</i>
     <i name="DEPER">      0.30000000</i>
     <i type="int" name="NRMM">     4</i>
     <i name="TIME">      0.40000000</i>
    </separator>
   </separator>
   <separator name="electronic mixer" >
    <i name="AMIX">      0.40000000</i>
    <i name="BMIX">      1.00000000</i>
    <i name="AMIN">      0.10000000</i>
    <i name="AMIX_MAG">      1.60000000</i>
    <i name="BMIX_MAG">      1.00000000</i>
    <separator name="electronic mixer details" >
     <i type="int" name="IMIX">     4</i>
     <i type="logical" name="MIXFIRST"> F  </i>
     <i type="int" name="MAXMIX">   -45</i>
     <i name="WC">    100.00000000</i>
     <i type="int" name="INIMIX">     1</i>
     <i type="int" name="MIXPRE">     1</i>
     <i type="int" name="MREMOVE">     5</i>
    </separator>
   </separator>
   <separator name="electronic dipolcorrection" >
    <i type="logical" name="LDIPOL"> F  </i>
    <i type="logical" name="LMONO"> F  </i>
    <i type="int" name="IDIPOL">     0</i>
    <i name="EPSILON">      1.00000000</i>
    <v name="DIPOL">   -100.00000000   -100.00000000   -100.00000000</v>
    <i name="EFIELD">      0.00000000</i>
   </separator>
  </separator>
  <separator name="grids" >
   <i type="int" name="NGX">    56</i>
   <i type="int" name="NGY">    56</i>
   <i type="int" name="NGZ">    24</i>
   <i type="int" name="NGXF">   112</i>
   <i type="int" name="NGYF">   112</i>
   <i type="int" name="NGZF">    48</i>
   <i type="logical" name="ADDGRID"> T  </i>
  </separator>
  <separator name="ionic" >
   <i type="int" name="NSW">   205</i>
   <i type="int" name="IBRION">     6</i>
   <i type="int" name="ISIF">     3</i>
   <i name="PSTRESS">      0.00000000</i>
   <i name="EDIFFG">      0.00000010</i>
   <i type="int" name="NFREE">     2</i>
   <i name="POTIM">      0.50000000</i>
   <i name="SMASS">     -3.00000000</i>
   <i name="SCALEE">      1.00000000</i>
  </separator>
  <separator name="ionic md" >
   <i name="TEBEG">      0.00010000</i>
   <i name="TEEND">      0.00010000</i>
   <i type="int" name="NBLOCK">     1</i>
   <i type="int" name="KBLOCK">     1</i>
   <i type="int" name="NPACO">   256</i>
   <i name="APACO">     16.00000000</i>
  </separator>
  <separator name="symmetry" >
   <i type="int" name="ISYM">     2</i>
   <i name="SYMPREC">      0.00001000</i>
  </separator>
  <separator name="dos" >
   <i type="logical" name="LORBIT"> F  </i>
   <v name="RWIGS">     -1.00000000     -1.00000000</v>
   <i type="int" name="NEDOS">   301</i>
   <i name="EMIN">     10.00000000</i>
   <i name="EMAX">    -10.00000000</i>
   <i name="EFERMI">      0.00000000</i>
  </separator>
  <separator name="writing" >
   <i type="int" name="NWRITE">     2</i>
   <i type="logical" name="LWAVE"> F  </i>
   <i type="logical" name="LCHARG"> F  </i>
   <i type="logical" name="LPARD"> F  </i>
   <i type="logical" name="LVTOT"> F  </i>
   <i type="logical" name="LVHAR"> F  </i>
   <i type="logical" name="LELF"> F  </i>
   <i type="logical" name="LOPTICS"> F  </i>
   <v name="STM">      0.00000000      0.00000000      0.00000000      0.00000000      0.00000000      0.00000000      0.00000000</v>
  </separator>
  <separator name="performance" >
   <i type="int" name="NPAR">    16</i>
   <i type="int" name="NSIM">     4</i>
   <i type="int" name="NBLK">    -1</i>
   <i type="logical" name="LPLANE"> T  </i>
   <i type="logical" name="LSCALAPACK"> T  </i>
   <i type="logical" name="LSCAAWARE"> F  </i>
   <i type="logical" name="LSCALU"> F  </i>
   <i type="logical" name="LASYNC"> F  </i>
   <i type="logical" name="LORBITALREAL"> F  </i>
  </separator>
  <separator name="miscellaneous" >
   <i type="int" name="IDIOT">     3</i>
   <i type="logical" name="LMUSIC"> F  </i>
   <v name="POMASS">     28.08500000     14.00100000</v>
   <v name="DARWINR">      0.00000000      0.00000000</v>
   <v name="DARWINV">      1.00000000      1.00000000</v>
   <i type="logical" name="LCORR"> T  </i>
  </separator>
  <i type="logical" name="GGA_COMPAT"> T  </i>
  <i type="logical" name="LBERRY"> F  </i>
  <i type="int" name="ICORELEVEL">     0</i>
  <i type="logical" name="LDAU"> F  </i>
  <i type="int" name="I_CONSTRAINED_M">     0</i>
  <separator name="electronic exchange-correlation" >
   <i type="string" name="GGA">--</i>
   <i type="int" name="VOSKOWN">     0</i>
   <i type="logical" name="LHFCALC"> F  </i>
   <i type="string" name="PRECFOCK"></i>
   <i type="logical" name="LSYMGRAD"> F  </i>
   <i type="logical" name="LHFONE"> F  </i>
   <i type="logical" name="LRHFCALC"> F  </i>
   <i type="logical" name="LTHOMAS"> F  </i>
   <i type="logical" name="LMODELHF"> F  </i>
   <i name="ENCUT4O">     -1.00000000</i>
   <i type="int" name="EXXOEP">     0</i>
   <i type="int" name="FOURORBIT">     0</i>
   <i name="AEXX">      0.00000000</i>
   <i name="HFALPHA">      0.00000000</i>
   <i name="MCALPHA">      0.00000000</i>
   <i name="ALDAX">      1.00000000</i>
   <i name="AGGAX">      1.00000000</i>
   <i name="ALDAC">      1.00000000</i>
   <i name="AGGAC">      1.00000000</i>
   <i type="int" name="NKREDX">     1</i>
   <i type="int" name="NKREDY">     1</i>
   <i type="int" name="NKREDZ">     1</i>
   <i type="logical" name="SHIFTRED"> F  </i>
   <i type="logical" name="ODDONLY"> F  </i>
   <i type="logical" name="EVENONLY"> F  </i>
   <i type="int" name="LMAXFOCK">     0</i>
   <i type="int" name="NMAXFOCKAE">     0</i>
   <i type="logical" name="LFOCKAEDFT"> F  </i>
   <i name="HFSCREEN">      0.00000000</i>
   <i name="HFSCREENC">      0.00000000</i>
   <i type="int" name="NBANDSGWLOW">     0</i>
  </separator>
  <separator name="vdW DFT" >
   <i type="logical" name="LUSE_VDW"> F  </i>
   <i name="Zab_VDW">     -0.84910000</i>
   <i name="PARAM1">      0.12340000</i>
   <i name="PARAM2">      1.00000000</i>
   <i name="PARAM3">      0.00000000</i>
  </separator>
  <separator name="model GW" >
   <i type="int" name="MODEL_GW">     0</i>
   <i name="MODEL_EPS0">      6.36853156</i>
   <i name="MODEL_ALPHA">      1.00000000</i>
  </separator>
  <separator name="linear response parameters" >
   <i type="logical" name="LEPSILON"> F  </i>
   <i type="logical" name="LRPA"> F  </i>
   <i type="logical" name="LNABLA"> F  </i>
   <i type="logical" name="LVEL"> F  </i>
   <i type="int" name="KINTER">     0</i>
   <i name="CSHIFT">      0.10000000</i>
   <i name="OMEGAMAX">     -1.00000000</i>
   <i name="DEG_THRESHOLD">      0.00200000</i>
  </separator>
  <separator name="orbital magnetization" >
   <i type="logical" name="NUCIND"> F  </i>
   <v name="MAGPOS">      0.00000000      0.00000000      0.00000000</v>
   <i type="logical" name="LNICSALL"> T  </i>
   <i type="logical" name="ORBITALMAG"> F  </i>
   <i type="logical" name="LMAGBLOCH"> F  </i>
   <i type="logical" name="LCHIMAG"> F  </i>
   <i type="logical" name="LGAUGE"> T  </i>
   <i type="int" name="MAGATOM">     0</i>
   <v name="MAGDIPOL">      0.00000000      0.00000000      0.00000000</v>
   <v name="AVECCONST">      0.00000000      0.00000000      0.00000000</v>
  </separator>
  <separator name="response functions" >
   <i type="logical" name="LADDER"> F  </i>
   <i type="logical" name="LFXC"> F  </i>
   <i type="logical" name="LHARTREE"> T  </i>
   <i type="int" name="IBSE">     0</i>
   <v type="int" name="KPOINT">    -1     0     0     0</v>
   <i type="logical" name="LTCTE"> F  </i>
   <i type="logical" name="LTETE"> F  </i>
   <i type="logical" name="LTRIPLET"> F  </i>
   <i type="logical" name="LFXCEPS"> F  </i>
   <i type="logical" name="LFXHEG"> F  </i>
   <i type="int" name="NATURALO">     0</i>
   <i type="logical" name="L2ORDER"> F  </i>
   <i type="logical" name="LUSEW"> F  </i>
   <i name="ENCUTGW">     -2.00000000</i>
   <i name="ENCUTGWSOFT">     -2.00000000</i>
   <i name="ENCUTLF">     -1.00000000</i>
   <i type="int" name="LMAXMP2">    -1</i>
   <i name="SCISSOR">      0.00000000</i>
   <i type="int" name="NOMEGA">     0</i>
   <i type="int" name="NOMEGAR">     0</i>
   <i type="int" name="NBANDSGW">    -1</i>
   <i type="int" name="NBANDSO">    -1</i>
   <i type="int" name="NBANDSV">    -1</i>
   <i type="int" name="NELM">     1</i>
   <i type="int" name="NELMHF">     1</i>
   <i type="int" name="DIM">     3</i>
   <i type="int" name="ANTIRES">     0</i>
   <i name="OMEGAMAX">    -30.00000000</i>
   <i name="OMEGAMIN">    -30.00000000</i>
   <i name="OMEGATL">   -200.00000000</i>
   <i type="int" name="OMEGAGRID">     0</i>
   <i name="CSHIFT">     -0.10000000</i>
   <i type="logical" name="SELFENERGY"> F  </i>
   <i type="logical" name="LSPECTRAL"> F  </i>
   <i type="logical" name="LSPECTRALGW"> F  </i>
   <i type="logical" name="LSINGLES"> F  </i>
   <i type="logical" name="LFERMIGW"> F  </i>
   <i type="logical" name="ODDONLYGW"> F  </i>
   <i type="logical" name="EVENONLYGW"> F  </i>
   <i type="int" name="NKREDLFX">     1</i>
   <i type="int" name="NKREDLFY">     1</i>
   <i type="int" name="NKREDLFZ">     1</i>
   <i type="int" name="MAXMEM">  1800</i>
   <i type="int" name="TELESCOPE">     0</i>
   <i type="int" name="TAUPAR">     1</i>
   <i type="int" name="OMEGAPAR">    -1</i>
   <i name="LAMBDA">      1.00000000</i>
  </separator>
  <separator name="External order field" >
   <i name="OFIELD_KAPPA">      0.00000000</i>
   <v name="OFIELD_K">      0.00000000      0.00000000      0.00000000</v>
   <i name="OFIELD_Q6_NEAR">      0.00000000</i>
   <i name="OFIELD_Q6_FAR">      0.00000000</i>
   <i name="OFIELD_A">      0.00000000</i>
  </separator>
 </parameters>
 <atominfo>
  <atoms>      14 </atoms>
  <types>       2 </types>
  <array name="atoms" >
   <dimension dim="1">ion</dimension>
   <field type="string">element</field>
   <field type="int">atomtype</field>
   <set>
    <rc><c>Si</c><c>   1</c></rc>
    <rc><c>Si</c><c>   1</c></rc>
    <rc><c>Si</c><c>   1</c></rc>
    <rc><c>Si</c><c>   1</c></rc>
    <rc><c>Si</c><c>   1</c></rc>
    <rc><c>Si</c><c>   1</c></rc>
    <rc><c>N </c><c>   2</c></rc>
    <rc><c>N </c><c>   2</c></rc>
    <rc><c>N </c><c>   2</c></rc>
    <rc><c>N </c><c>   2</c></rc>
    <rc><c>N </c><c>   2</c></rc>
    <rc><c>N </c><c>   2</c></rc>
    <rc><c>N </c><c>   2</c></rc>
    <rc><c>N </c><c>   2</c></rc>
   </set>
  </array>
  <array name="atomtypes" >
   <dimension dim="1">type</dimension>
   <field type="int">atomspertype</field>
   <field type="string">element</field>
   <field>mass</field>
   <field>valence</field>
   <field type="string">pseudopotential</field>
   <set>
    <rc><c>   6</c><c>Si</c><c>     28.08500000</c><c>      4.00000000</c><c> PAW_PBE Si 05Jan2001                   </c></rc>
    <rc><c>   8</c><c>N </c><c>     14.00100000</c><c>      5.00000000</c><c> PAW_PBE N 08Apr2002                    </c></rc>
   </set>
  </array>
 </atominfo>
 <structure name="initialpos" >
  <crystal>
   <varray name="basis" >
    <v>       7.65951378       0.00000000       0.00000000 </v>
    <v>      -3.82975689       6.63333351       0.00000000 </v>
    <v>       0.00000000       0.00000000       2.92471165 </v>
   </varray>
   <i name="volume">    148.59906968 </i>
   <varray name="rec_basis" >
    <v>       0.13055659       0.07537688       0.00000000 </v>
    <v>       0.00000000       0.15075376       0.00000000 </v>
    <v>       0.00000000       0.00000000       0.34191405 </v>
   </varray>
  </crystal>
  <varray name="positions" >
   <v>       0.17495735       0.40610177       0.75000000 </v>
   <v>       0.59389823       0.76885558       0.75000000 </v>
   <v>       0.23114442       0.82504265       0.75000000 </v>
   <v>       0.82504265       0.59389823       0.25000000 </v>
   <v>       0.40610177       0.23114442       0.25000000 </v>
   <v>       0.76885558       0.17495735       0.25000000 </v>
   <v>       0.32997228       0.29920782       0.75000000 </v>
   <v>       0.70079218       0.03076445       0.75000000 </v>
   <v>       0.96923555       0.67002772       0.75000000 </v>
   <v>       0.33333333       0.66666667       0.75000000 </v>
   <v>       0.67002772       0.70079218       0.25000000 </v>
   <v>       0.29920782       0.96923555       0.25000000 </v>
   <v>       0.03076445       0.32997228       0.25000000 </v>
   <v>       0.66666667       0.33333333       0.25000000 </v>
  </varray>
 </structure>
 <calculation>
  <scstep>
   <time name="dav">    0.95    0.95</time>
   <time name="total">    1.03    1.04</time>
   <energy>
    <i name="alphaZ">     95.91331308 </i>
    <i name="ewald">  -2388.87087685 </i>
    <i name="hartreedc">   -583.48580011 </i>
    <i name="XCdc">    110.27890420 </i>
    <i name="pawpsdc">   1094.24183023 </i>
    <i name="pawaedc">   -999.71995457 </i>
    <i name="eentropy">     -0.00029693 </i>
    <i name="bandstr">    178.61284117 </i>
    <i name="atom">   2734.67633600 </i>
    <i name="e_fr_energy">    241.64629625 </i>
    <i name="e_wo_entrp">    241.64659317 </i>
    <i name="e_0_energy">    241.64644471 </i>
   </energy>
  </scstep>
  <scstep>
   <time name="dav">    1.30    1.30</time>
   <time name="total">    1.30    1.31</time>
   <energy>
    <i name="e_fr_energy">   -113.86421558 </i>
    <i name="e_wo_entrp">   -113.86421558 </i>
    <i name="e_0_energy">   -113.86421558 </i>
   </energy>
  </scstep>
  <scstep>
   <time name="dav">    1.22    1.22</time>
   <time name="total">    1.22    1.23</time>
   <energy>
    <i name="e_fr_energy">   -130.79453955 </i>
    <i name="e_wo_entrp">   -130.79453955 </i>
    <i name="e_0_energy">   -130.79453955 </i>
   </energy>
  </scstep>
  <scstep>
   <time name="dav">    1.14    1.15</time>
   <time name="total">    1.14    1.42</time>
   <energy>
    <i name="e_fr_energy">   -130.98150434 </i>
    <i name="e_wo_entrp">   -130.98150434 </i>
    <i name="e_0_energy">   -130.98150434 </i>
   </energy>
  </scstep>
  <scstep>
   <time name="dav">    1.23    1.23</time>
   <time name="total">    1.32    1.34</time>
   <energy>
    <i name="e_fr_energy">   -130.98504959 </i>
    <i name="e_wo_entrp">   -130.98504959 </i>
    <i name="e_0_energy">   -130.98504959 </i>
   </energy>
  </scstep>
  <scstep>
   <time name="dav">    1.19    1.19</time>
   <time name="total">    1.34    1.35</time>
   <energy>
    <i name="e_fr_energy">   -114.61103057 </i>
    <i name="e_wo_entrp">   -114.61103057 </i>
    <i name="e_0_energy">   -114.61103057 </i>
   </energy>
  </scstep>
  <scstep>
   <time name="dav">    1.22    1.23</time>
   <time name="total">    1.38    1.38</time>
   <energy>
    <i name="e_fr_energy">   -114.58663167 </i>
    <i name="e_wo_entrp">   -114.58663167 </i>
    <i name="e_0_energy">   -114.58663167 </i>
   </energy>
  </scstep>
  <scstep>
   <time name="dav">    1.14    1.15</time>
   <time name="total">    1.30    1.31</time>
   <energy>
    <i name="e_fr_energy">   -114.56783960 </i>
    <i name="e_wo_entrp">   -114.56783960 </i>
    <i name="e_0_energy">   -114.56783960 </i>
   </energy>
  </scstep>
  <scstep>
   <time name="dav">    1.22    1.22</time>
   <time name="total">    1.37    1.38</time>
   <energy>
    <i name="e_fr_energy">   -114.54135514 </i>
    <i name="e_wo_entrp">   -114.54135514 </i>
    <i name="e_0_energy">   -114.54135514 </i>
   </energy>
  </scstep>
  <scstep>
   <time name="dav">    1.18    1.18</time>
   <time name="total">    1.33    1.34</time>
   <energy>
    <i name="e_fr_energy">   -114.54365277 </i>
    <i name="e_wo_entrp">   -114.54365277 </i>
    <i name="e_0_energy">   -114.54365277 </i>
   </energy>
  </scstep>
  <scstep>
   <time name="dav">    1.19    1.20</time>
   <time name="total">    1.35    1.36</time>
   <energy>
    <i name="e_fr_energy">   -114.54362603 </i>
    <i name="e_wo_entrp">   -114.54362603 </i>
    <i name="e_0_energy">   -114.54362603 </i>
   </energy>
  </scstep>
  <scstep>
   <time name="dav">    1.21    1.21</time>
   <time name="total">    1.36    1.38</time>
   <energy>
    <i name="e_fr_energy">   -114.54368952 </i>
    <i name="e_wo_entrp">   -114.54368952 </i>
    <i name="e_0_energy">   -114.54368952 </i>
   </energy>
  </scstep>
  <scstep>
   <time name="dav">    1.18    1.19</time>
   <time name="total">    1.34    1.36</time>
   <energy>
    <i name="e_fr_energy">   -114.54370347 </i>
    <i name="e_wo_entrp">   -114.54370347 </i>
    <i name="e_0_energy">   -114.54370347 </i>
   </energy>
  </scstep>
  <scstep>
   <time name="dav">    1.18    1.19</time>
   <time name="total">    1.34    1.35</time>
   <energy>
    <i name="e_fr_energy">   -114.54370718 </i>
    <i name="e_wo_entrp">   -114.54370718 </i>
    <i name="e_0_energy">   -114.54370718 </i>
   </energy>
  </scstep>
  <scstep>
   <time name="dav">    1.22    1.23</time>
   <time name="total">    1.38    1.39</time>
   <energy>
    <i name="e_fr_energy">   -114.54370778 </i>
    <i name="e_wo_entrp">   -114.54370778 </i>
    <i name="e_0_energy">   -114.54370778 </i>
   </energy>
  </scstep>
  <scstep>
   <time name="dav">    1.20    1.21</time>
   <time name="total">    1.36    1.38</time>
   <energy>
    <i name="e_fr_energy">   -114.54370790 </i>
    <i name="e_wo_entrp">   -114.54370790 </i>
    <i name="e_0_energy">   -114.54370790 </i>
   </energy>
  </scstep>
  <scstep>
   <time name="dav">    1.21    1.22</time>
   <time name="total">    1.37    1.38</time>
   <energy>
    <i name="e_fr_energy">   -114.54370788 </i>
    <i name="e_wo_entrp">   -114.54370788 </i>
    <i name="e_0_energy">   -114.54370788 </i>
   </energy>
  </scstep>
  <scstep>
   <time name="dav">    0.99    0.99</time>
   <time name="total">    1.05    1.06</time>
   <energy>
    <i name="alphaZ">     95.91331308 </i>
    <i name="ewald">  -2388.87087685 </i>
    <i name="hartreedc">   -725.54052919 </i>
    <i name="XCdc">    121.17494633 </i>
    <i name="pawpsdc">   1553.81689805 </i>
    <i name="pawaedc">  -1461.81911629 </i>
    <i name="eentropy">      0.00000000 </i>
    <i name="bandstr">    -43.89467901 </i>
    <i name="atom">   2734.67633600 </i>
    <i name="e_fr_energy">   -114.54370788 </i>
    <i name="e_wo_entrp">   -114.54370788 </i>
    <i name="e_0_energy">   -114.54370788 </i>
   </energy>
  </scstep>
  <structure>
   <crystal>
    <varray name="basis" >
     <v>       7.65951378       0.00000000       0.00000000 </v>
     <v>      -3.82975689       6.63333351       0.00000000 </v>
     <v>       0.00000000       0.00000000       2.92471165 </v>
    </varray>
    <i name="volume">    148.59906968 </i>
    <varray name="rec_basis" >
     <v>       0.13055659       0.07537688       0.00000000 </v>
     <v>       0.00000000       0.15075376       0.00000000 </v>
     <v>       0.00000000       0.00000000       0.34191405 </v>
    </varray>
   </crystal>
   <varray name="positions" >
    <v>       0.17495735       0.40610177       0.75000000 </v>
    <v>       0.59389823       0.76885558       0.75000000 </v>
    <v>       0.23114442       0.82504265       0.75000000 </v>
    <v>       0.82504265       0.59389823       0.25000000 </v>
    <v>       0.40610177       0.23114442       0.25000000 </v>
    <v>       0.76885558       0.17495735       0.25000000 </v>
    <v>       0.32997228       0.29920782       0.75000000 </v>
    <v>       0.70079218       0.03076445       0.75000000 </v>
    <v>       0.96923555       0.67002772       0.75000000 </v>
    <v>       0.33333333       0.66666667       0.75000000 </v>
    <v>       0.67002772       0.70079218       0.25000000 </v>
    <v>       0.29920782       0.96923555       0.25000000 </v>
    <v>       0.03076445       0.32997228       0.25000000 </v>
    <v>       0.66666667       0.33333333       0.25000000 </v>
   </varray>
  </structure>
  <varray name="forces" >
   <v>       0.00000130      -0.00000254       0.00000000 </v>
   <v>       0.00000155       0.00000240       0.00000000 </v>
   <v>      -0.00000285       0.00000014       0.00000000 </v>
   <v>      -0.00000130       0.00000254       0.00000000 </v>
   <v>      -0.00000155      -0.00000240       0.00000000 </v>
   <v>       0.00000285      -0.00000014       0.00000000 </v>
   <v>       0.00000050       0.00000398       0.00000000 </v>
   <v>      -0.00000370      -0.00000156       0.00000000 </v>
   <v>       0.00000320      -0.00000242       0.00000000 </v>
   <v>       0.00000000       0.00000000       0.00000000 </v>
   <v>      -0.00000050      -0.00000398       0.00000000 </v>
   <v>       0.00000370       0.00000156       0.00000000 </v>
   <v>      -0.00000320       0.00000242       0.00000000 </v>
   <v>       0.00000000       0.00000000       0.00000000 </v>
  </varray>
  <varray name="stress" >
   <v>       0.00061657      -0.00000010       0.00000000 </v>
   <v>       0.00000010       0.00061657       0.00000000 </v>
   <v>       0.00000000       0.00000000       0.00128345 </v>
  </varray>
  <energy>
   <i name="e_fr_energy">   -114.54370788 </i>
   <i name="e_wo_entrp">   -114.54370788 </i>
   <i name="e_0_energy">      0.00000000 </i>
  </energy>
  <kpoints>
   <generation param="Monkhorst-Pack">
    <v type="int" name="divisions">       4        4        8 </v>
    <v name="usershift">      0.50000000       0.50000000       0.00000000 </v>
    <v name="genvec1">      0.25000000       0.00000000       0.00000000 </v>
    <v name="genvec2">      0.00000000       0.25000000       0.00000000 </v>
    <v name="genvec3">      0.00000000       0.00000000       0.12500000 </v>
    <v name="shift">      0.00000000       0.00000000       0.50000000 </v>
   </generation>
   <varray name="kpointlist" >
    <v>       0.00000000       0.00000000       0.06250000 </v>
    <v>       0.25000000       0.00000000       0.06250000 </v>
    <v>       0.50000000       0.00000000       0.06250000 </v>
    <v>       0.00000000       0.25000000       0.06250000 </v>
    <v>       0.25000000       0.25000000       0.06250000 </v>
    <v>       0.50000000       0.25000000       0.06250000 </v>
    <v>      -0.25000000       0.25000000       0.06250000 </v>
    <v>       0.00000000       0.50000000       0.06250000 </v>
    <v>       0.25000000       0.50000000       0.06250000 </v>
    <v>       0.50000000       0.50000000       0.06250000 </v>
    <v>       0.00000000       0.00000000       0.18750000 </v>
    <v>       0.25000000       0.00000000       0.18750000 </v>
    <v>       0.50000000       0.00000000       0.18750000 </v>
    <v>       0.00000000       0.25000000       0.18750000 </v>
    <v>       0.25000000       0.25000000       0.18750000 </v>
    <v>       0.50000000       0.25000000       0.18750000 </v>
    <v>      -0.25000000       0.25000000       0.18750000 </v>
    <v>       0.00000000       0.50000000       0.18750000 </v>
    <v>       0.25000000       0.50000000       0.18750000 </v>
    <v>       0.50000000       0.50000000       0.18750000 </v>
    <v>       0.00000000       0.00000000       0.31250000 </v>
    <v>       0.25000000       0.00000000       0.31250000 </v>
    <v>       0.50000000       0.00000000       0.31250000 </v>
    <v>       0.00000000       0.25000000       0.31250000 </v>
    <v>       0.25000000       0.25000000       0.31250000 </v>
    <v>       0.50000000       0.25000000       0.31250000 </v>
    <v>      -0.25000000       0.25000000       0.31250000 </v>
    <v>       0.00000000       0.50000000       0.31250000 </v>
    <v>       0.25000000       0.50000000       0.31250000 </v>
    <v>       0.50000000       0.50000000       0.31250000 </v>
    <v>       0.00000000       0.00000000       0.43750000 </v>
    <v>       0.25000000       0.00000000       0.43750000 </v>
    <v>       0.50000000       0.00000000       0.43750000 </v>
    <v>       0.00000000       0.25000000       0.43750000 </v>
    <v>       0.25000000       0.25000000       0.43750000 </v>
    <v>       0.50000000       0.25000000       0.43750000 </v>
    <v>      -0.25000000       0.25000000       0.43750000 </v>
    <v>       0.00000000       0.50000000       0.43750000 </v>
    <v>       0.25000000       0.50000000       0.43750000 </v>
    <v>       0.50000000       0.50000000       0.43750000 </v>
   </varray>
   <varray name="weights" >
    <v>       0.01562500 </v>
    <v>       0.03125000 </v>
    <v>       0.01562500 </v>
    <v>       0.03125000 </v>
    <v>       0.03125000 </v>
    <v>       0.03125000 </v>
    <v>       0.03125000 </v>
    <v>       0.01562500 </v>
    <v>       0.03125000 </v>
    <v>       0.01562500 </v>
    <v>       0.01562500 </v>
    <v>       0.03125000 </v>
    <v>       0.01562500 </v>
    <v>       0.03125000 </v>
    <v>       0.03125000 </v>
    <v>       0.03125000 </v>
    <v>       0.03125000 </v>
    <v>       0.01562500 </v>
    <v>       0.03125000 </v>
    <v>       0.01562500 </v>
    <v>       0.01562500 </v>
    <v>       0.03125000 </v>
    <v>       0.01562500 </v>
    <v>       0.03125000 </v>
    <v>       0.03125000 </v>
    <v>       0.03125000 </v>
    <v>       0.03125000 </v>
    <v>       0.01562500 </v>
    <v>       0.03125000 </v>
    <v>       0.01562500 </v>
    <v>       0.01562500 </v>
    <v>       0.03125000 </v>
    <v>       0.01562500 </v>
    <v>       0.03125000 </v>
    <v>       0.03125000 </v>
    <v>       0.03125000 </v>
    <v>       0.03125000 </v>
    <v>       0.01562500 </v>
    <v>       0.03125000 </v>
    <v>       0.01562500 </v>
   </varray>
  </kpoints>
  <time name="totalsc">   25.95   26.46</time>
 </calculation>
 <calculation>
  <scstep>
   <time name="dav">    2.81    2.81</time>
   <time name="total">    3.02    3.07</time>
   <energy>
    <i name="alphaZ">     94.49587496 </i>
    <i name="ewald">  -2375.57982911 </i>
    <i name="hartreedc">   -722.66679638 </i>
    <i name="XCdc">    120.13648382 </i>
    <i name="pawpsdc">   1553.81680981 </i>
    <i name="pawaedc">  -1461.81901483 </i>
    <i name="eentropy">      0.00000000 </i>
    <i name="bandstr">    -57.61627303 </i>
    <i name="atom">   2734.67633600 </i>
    <i name="e_fr_energy">   -114.55640875 </i>
    <i name="e_wo_entrp">   -114.55640875 </i>
    <i name="e_0_energy">   -114.55640875 </i>
   </energy>
  </scstep>
  <scstep>
   <time name="dav">    3.08    3.08</time>
   <time name="total">    3.29    3.31</time>
   <energy>
    <i name="e_fr_energy">   -114.50496501 </i>
    <i name="e_wo_entrp">   -114.50496501 </i>
    <i name="e_0_energy">   -114.50496501 </i>
   </energy>
  </scstep>
  <scstep>
   <time name="dav">    3.05    3.06</time>
   <time name="total">    3.26    3.27</time>
   <energy>
    <i name="e_fr_energy">   -114.49383563 </i>
    <i name="e_wo_entrp">   -114.49383563 </i>
    <i name="e_0_energy">   -114.49383563 </i>
   </energy>
  </scstep>
  <scstep>
   <time name="dav">    2.94    2.94</time>
   <time name="total">    3.14    3.15</time>
   <energy>
    <i name="e_fr_energy">   -114.49231849 </i>
    <i name="e_wo_entrp">   -114.49231849 </i>
    <i name="e_0_energy">   -114.49231849 </i>
   </energy>
  </scstep>
  <scstep>
   <time name="dav">    3.07    3.08</time>
   <time name="total">    3.27   14.48</time>
   <energy>
    <i name="e_fr_energy">   -114.49187769 </i>
    <i name="e_wo_entrp">   -114.49187769 </i>
    <i name="e_0_energy">   -114.49187769 </i>
   </energy>
  </scstep>
  <scstep>
   <time name="dav">    3.05    3.06</time>
   <time name="total">    3.25    3.29</time>
   <energy>
    <i name="e_fr_energy">   -114.49185304 </i>
    <i name="e_wo_entrp">   -114.49185304 </i>
    <i name="e_0_energy">   -114.49185304 </i>
   </energy>
  </scstep>
  <scstep>
   <time name="dav">    3.04    3.07</time>
   <time name="total">    3.25    3.28</time>
   <energy>
    <i name="e_fr_energy">   -114.49185887 </i>
    <i name="e_wo_entrp">   -114.49185887 </i>
    <i name="e_0_energy">   -114.49185887 </i>
   </energy>
  </scstep>
  <scstep>
   <time name="dav">    3.04    3.04</time>
   <time name="total">    3.25    3.27</time>
   <energy>
    <i name="e_fr_energy">   -114.49185291 </i>
    <i name="e_wo_entrp">   -114.49185291 </i>
    <i name="e_0_energy">   -114.49185291 </i>
   </energy>
  </scstep>
  <scstep>
   <time name="dav">    3.05    3.05</time>
   <time name="total">    3.25    3.47</time>
   <energy>
    <i name="e_fr_energy">   -114.49185365 </i>
    <i name="e_wo_entrp">   -114.49185365 </i>
    <i name="e_0_energy">   -114.49185365 </i>
   </energy>
  </scstep>
  <scstep>
   <time name="dav">    3.03    3.04</time>
   <time name="total">    3.24    3.26</time>
   <energy>
    <i name="e_fr_energy">   -114.49185351 </i>
    <i name="e_wo_entrp">   -114.49185351 </i>
    <i name="e_0_energy">   -114.49185351 </i>
   </energy>
  </scstep>
  <scstep>
   <time name="dav">    3.02    3.03</time>
   <time name="total">    3.23    3.25</time>
   <energy>
    <i name="e_fr_energy">   -114.49185352 </i>
    <i name="e_wo_entrp">   -114.49185352 </i>
    <i name="e_0_energy">   -114.49185352 </i>
   </energy>
  </scstep>
  <scstep>
   <time name="dav">    2.79    2.80</time>
   <time name="total">    3.00    3.01</time>
   <energy>
    <i name="e_fr_energy">   -114.49185355 </i>
    <i name="e_wo_entrp">   -114.49185355 </i>
    <i name="e_0_energy">   -114.49185355 </i>
   </energy>
  </scstep>
  <scstep>
   <time name="dav">    2.49    2.50</time>
   <time name="total">    2.70    2.71</time>
   <energy>
    <i name="e_fr_energy">   -114.49185358 </i>
    <i name="e_wo_entrp">   -114.49185358 </i>
    <i name="e_0_energy">   -114.49185358 </i>
   </energy>
  </scstep>
  <scstep>
   <time name="dav">    2.44    2.45</time>
   <time name="total">    2.50    2.52</time>
   <energy>
    <i name="alphaZ">     94.49587496 </i>
    <i name="ewald">  -2375.57982911 </i>
    <i name="hartreedc">   -729.45129872 </i>
    <i name="XCdc">    120.53405019 </i>
    <i name="pawpsdc">   1541.50455281 </i>
    <i name="pawaedc">  -1449.41580373 </i>
    <i name="eentropy">      0.00000000 </i>
    <i name="bandstr">    -51.25573598 </i>
    <i name="atom">   2734.67633600 </i>
    <i name="e_fr_energy">   -114.49185359 </i>
    <i name="e_wo_entrp">   -114.49185359 </i>
    <i name="e_0_energy">   -114.49185359 </i>
   </energy>
  </scstep>
  <structure>
   <crystal>
    <varray name="basis" >
     <v>       7.77440649       0.00000000       0.00000000 </v>
     <v>      -3.88720324       6.63333351       0.00000000 </v>
     <v>       0.00000000       0.00000000       2.92471165 </v>
    </varray>
    <i name="volume">    150.82805573 </i>
    <varray name="rec_basis" >
     <v>       0.12862718       0.07537688       0.00000000 </v>
     <v>       0.00000000       0.15075376       0.00000000 </v>
     <v>       0.00000000       0.00000000       0.34191405 </v>
    </varray>
   </crystal>
   <varray name="positions" >
    <v>       0.17495735       0.40610177       0.75000000 </v>
    <v>       0.59389823       0.76885558       0.75000000 </v>
    <v>       0.23114442       0.82504265       0.75000000 </v>
    <v>       0.82504265       0.59389823       0.25000000 </v>
    <v>       0.40610177       0.23114442       0.25000000 </v>
    <v>       0.76885558       0.17495735       0.25000000 </v>
    <v>       0.32997228       0.29920782       0.75000000 </v>
    <v>       0.70079218       0.03076445       0.75000000 </v>
    <v>       0.96923555       0.67002772       0.75000000 </v>
    <v>       0.33333333       0.66666667       0.75000000 </v>
    <v>       0.67002772       0.70079218       0.25000000 </v>
    <v>       0.29920782       0.96923555       0.25000000 </v>
    <v>       0.03076445       0.32997228       0.25000000 </v>
    <v>       0.66666667       0.33333333       0.25000000 </v>
   </varray>
  </structure>
  <varray name="forces" >
   <v>       0.17298616      -0.15918353       0.00000000 </v>
   <v>      -0.15031260      -0.23245617       0.00000000 </v>
   <v>       0.01882908      -0.28988630       0.00000000 </v>
   <v>      -0.17298616       0.15918353       0.00000000 </v>
   <v>       0.15031260       0.23245617       0.00000000 </v>
   <v>      -0.01882908       0.28988630       0.00000000 </v>
   <v>      -0.10901042       0.05497681       0.00000000 </v>
   <v>      -0.03956530       0.04760661       0.00000000 </v>
   <v>       0.09827790       0.12819117       0.00000000 </v>
   <v>       0.09514206       0.22153679       0.00000000 </v>
   <v>       0.10901042      -0.05497681       0.00000000 </v>
   <v>       0.03956530      -0.04760661       0.00000000 </v>
   <v>      -0.09827790      -0.12819117       0.00000000 </v>
   <v>      -0.09514206      -0.22153679       0.00000000 </v>
  </varray>
  <varray name="stress" >
   <v>     -73.35825133       0.00380837       0.00000000 </v>
   <v>       0.00380843     -17.07534793       0.00000000 </v>
   <v>       0.00000000       0.00000000     -11.82154570 </v>
  </varray>
  <energy>
   <i name="e_fr_energy">   -114.49185359 </i>
   <i name="e_wo_entrp">   -114.49185359 </i>
   <i name="e_0_energy">      0.00000000 </i>
  </energy>
  <kpoints>
   <generation param="Monkhorst-Pack">
    <v type="int" name="divisions">       4        4        8 </v>
    <v name="usershift">      0.50000000       0.50000000       0.00000000 </v>
    <v name="genvec1">      0.25000000       0.00000000       0.00000000 </v>
    <v name="genvec2">      0.00000000       0.25000000       0.00000000 </v>
    <v name="genvec3">      0.00000000       0.00000000       0.12500000 </v>
    <v name="shift">      0.00000000       0.00000000       0.50000000 </v>
   </generation>
   <varray name="kpointlist" >
    <v>       0.00000000       0.00000000       0.06250000 </v>
    <v>       0.25000000       0.00000000       0.06250000 </v>
    <v>       0.50000000       0.00000000       0.06250000 </v>
    <v>       0.00000000       0.25000000       0.06250000 </v>
    <v>       0.25000000       0.25000000       0.06250000 </v>
    <v>       0.50000000       0.25000000       0.06250000 </v>
    <v>      -0.25000000       0.25000000       0.06250000 </v>
    <v>       0.00000000       0.50000000       0.06250000 </v>
    <v>       0.25000000       0.50000000       0.06250000 </v>
    <v>       0.50000000       0.50000000       0.06250000 </v>
    <v>       0.00000000       0.00000000       0.18750000 </v>
    <v>       0.25000000       0.00000000       0.18750000 </v>
    <v>       0.50000000       0.00000000       0.18750000 </v>
    <v>       0.00000000       0.25000000       0.18750000 </v>
    <v>       0.25000000       0.25000000       0.18750000 </v>
    <v>       0.50000000       0.25000000       0.18750000 </v>
    <v>      -0.25000000       0.25000000       0.18750000 </v>
    <v>       0.00000000       0.50000000       0.18750000 </v>
    <v>       0.25000000       0.50000000       0.18750000 </v>
    <v>       0.50000000       0.50000000       0.18750000 </v>
    <v>       0.00000000       0.00000000       0.31250000 </v>
    <v>       0.25000000       0.00000000       0.31250000 </v>
    <v>       0.50000000       0.00000000       0.31250000 </v>
    <v>       0.00000000       0.25000000       0.31250000 </v>
    <v>       0.25000000       0.25000000       0.31250000 </v>
    <v>       0.50000000       0.25000000       0.31250000 </v>
    <v>      -0.25000000       0.25000000       0.31250000 </v>
    <v>       0.00000000       0.50000000       0.31250000 </v>
    <v>       0.25000000       0.50000000       0.31250000 </v>
    <v>       0.50000000       0.50000000       0.31250000 </v>
    <v>       0.00000000       0.00000000       0.43750000 </v>
    <v>       0.25000000       0.00000000       0.43750000 </v>
    <v>       0.50000000       0.00000000       0.43750000 </v>
    <v>       0.00000000       0.25000000       0.43750000 </v>
    <v>       0.25000000       0.25000000       0.43750000 </v>
    <v>       0.50000000       0.25000000       0.43750000 </v>
    <v>      -0.25000000       0.25000000       0.43750000 </v>
    <v>       0.00000000       0.50000000       0.43750000 </v>
    <v>       0.25000000       0.50000000       0.43750000 </v>
    <v>       0.50000000       0.50000000       0.43750000 </v>
   </varray>
   <varray name="weights" >
    <v>       0.01562500 </v>
    <v>       0.03125000 </v>
    <v>       0.01562500 </v>
    <v>       0.03125000 </v>
    <v>       0.03125000 </v>
    <v>       0.03125000 </v>
    <v>       0.03125000 </v>
    <v>       0.01562500 </v>
    <v>       0.03125000 </v>
    <v>       0.01562500 </v>
    <v>       0.01562500 </v>
    <v>       0.03125000 </v>
    <v>       0.01562500 </v>
    <v>       0.03125000 </v>
    <v>       0.03125000 </v>
    <v>       0.03125000 </v>
    <v>       0.03125000 </v>
    <v>       0.01562500 </v>
    <v>       0.03125000 </v>
    <v>       0.01562500 </v>
    <v>       0.01562500 </v>
    <v>       0.03125000 </v>
    <v>       0.01562500 </v>
    <v>       0.03125000 </v>
    <v>       0.03125000 </v>
    <v>       0.03125000 </v>
    <v>       0.03125000 </v>
    <v>       0.01562500 </v>
    <v>       0.03125000 </v>
    <v>       0.01562500 </v>
    <v>       0.01562500 </v>
    <v>       0.03125000 </v>
    <v>       0.01562500 </v>
    <v>       0.03125000 </v>
    <v>       0.03125000 </v>
    <v>       0.03125000 </v>
    <v>       0.03125000 </v>
    <v>       0.01562500 </v>
    <v>       0.03125000 </v>
    <v>       0.01562500 </v>
   </varray>
  </kpoints>
  <time name="totalsc">   47.95   59.78</time>
 </calculation>
 <calculation>
  <scstep>
   <time name="dav">    2.92    2.93</time>
   <time name="total">    3.14    3.14</time>
   <energy>
    <i name="alphaZ">     97.37392191 </i>
    <i name="ewald">  -2402.27098058 </i>
    <i name="hartreedc">   -735.11280998 </i>
    <i name="XCdc">    122.62943202 </i>
    <i name="pawpsdc">   1541.50411337 </i>
    <i name="pawaedc">  -1449.41536387 </i>
    <i name="eentropy">      0.00000000 </i>
    <i name="bandstr">    -24.13628163 </i>
    <i name="atom">   2734.67633600 </i>
    <i name="e_fr_energy">   -114.75163276 </i>
    <i name="e_wo_entrp">   -114.75163276 </i>
    <i name="e_0_energy">   -114.75163276 </i>
   </energy>
  </scstep>
  <scstep>
   <time name="dav">    3.06    3.07</time>
   <time name="total">    3.28    3.28</time>
   <energy>
    <i name="e_fr_energy">   -114.53824864 </i>
    <i name="e_wo_entrp">   -114.53824864 </i>
    <i name="e_0_energy">   -114.53824864 </i>
   </energy>
  </scstep>
  <scstep>
   <time name="dav">    3.11    3.11</time>
   <time name="total">    3.31    3.33</time>
   <energy>
    <i name="e_fr_energy">   -114.49594020 </i>
    <i name="e_wo_entrp">   -114.49594020 </i>
    <i name="e_0_energy">   -114.49594020 </i>
   </energy>
  </scstep>
  <scstep>
   <time name="dav">    2.97    2.97</time>
   <time name="total">    3.18    3.19</time>
   <energy>
    <i name="e_fr_energy">   -114.49032099 </i>
    <i name="e_wo_entrp">   -114.49032099 </i>
    <i name="e_0_energy">   -114.49032099 </i>
   </energy>
  </scstep>
  <scstep>
   <time name="dav">    3.10    3.10</time>
   <time name="total">    3.30    3.31</time>
   <energy>
    <i name="e_fr_energy">   -114.48891855 </i>
    <i name="e_wo_entrp">   -114.48891855 </i>
    <i name="e_0_energy">   -114.48891855 </i>
   </energy>
  </scstep>
  <scstep>
   <time name="dav">    3.04    3.04</time>
   <time name="total">    3.25    3.26</time>
   <energy>
    <i name="e_fr_energy">   -114.48891958 </i>
    <i name="e_wo_entrp">   -114.48891958 </i>
    <i name="e_0_energy">   -114.48891958 </i>
   </energy>
  </scstep>
  <scstep>
   <time name="dav">    3.08    3.08</time>
   <time name="total">    3.29    3.31</time>
   <energy>
    <i name="e_fr_energy">   -114.48894477 </i>
    <i name="e_wo_entrp">   -114.48894477 </i>
    <i name="e_0_energy">   -114.48894477 </i>
   </energy>
  </scstep>
  <scstep>
   <time name="dav">    3.02    3.03</time>
   <time name="total">    3.23   15.64</time>
   <energy>
    <i name="e_fr_energy">   -114.48893376 </i>
    <i name="e_wo_entrp">   -114.48893376 </i>
    <i name="e_0_energy">   -114.48893376 </i>
   </energy>
  </scstep>
  <scstep>
   <time name="dav">    3.06    3.08</time>
   <time name="total">    3.27    3.29</time>
   <energy>
    <i name="e_fr_energy">   -114.48893577 </i>
    <i name="e_wo_entrp">   -114.48893577 </i>
    <i name="e_0_energy">   -114.48893577 </i>
   </energy>
  </scstep>
  <scstep>
   <time name="dav">    3.06    3.07</time>
   <time name="total">    3.27    3.28</time>
   <energy>
    <i name="e_fr_energy">   -114.48893541 </i>
    <i name="e_wo_entrp">   -114.48893541 </i>
    <i name="e_0_energy">   -114.48893541 </i>
   </energy>
  </scstep>
  <scstep>
   <time name="dav">    3.03    3.05</time>
   <time name="total">    3.24    3.26</time>
   <energy>
    <i name="e_fr_energy">   -114.48893539 </i>
    <i name="e_wo_entrp">   -114.48893539 </i>
    <i name="e_0_energy">   -114.48893539 </i>
   </energy>
  </scstep>
  <scstep>
   <time name="dav">    3.07    3.08</time>
   <time name="total">    3.28    3.30</time>
   <energy>
    <i name="e_fr_energy">   -114.48893537 </i>
    <i name="e_wo_entrp">   -114.48893537 </i>
    <i name="e_0_energy">   -114.48893537 </i>
   </energy>
  </scstep>
  <scstep>
   <time name="dav">    2.66    2.67</time>
   <time name="total">    2.87    2.93</time>
   <energy>
    <i name="e_fr_energy">   -114.48893534 </i>
    <i name="e_wo_entrp">   -114.48893534 </i>
    <i name="e_0_energy">   -114.48893534 </i>
   </energy>
  </scstep>
  <scstep>
   <time name="dav">    2.49    2.50</time>
   <time name="total">    2.56    2.59</time>
   <energy>
    <i name="alphaZ">     97.37392191 </i>
    <i name="ewald">  -2402.27098058 </i>
    <i name="hartreedc">   -721.71262258 </i>
    <i name="XCdc">    121.83052020 </i>
    <i name="pawpsdc">   1566.55210402 </i>
    <i name="pawaedc">  -1474.65078465 </i>
    <i name="eentropy">      0.00000000 </i>
    <i name="bandstr">    -36.28742965 </i>
    <i name="atom">   2734.67633600 </i>
    <i name="e_fr_energy">   -114.48893533 </i>
    <i name="e_wo_entrp">   -114.48893533 </i>
    <i name="e_0_energy">   -114.48893533 </i>
   </energy>
  </scstep>
  <structure>
   <crystal>
    <varray name="basis" >
     <v>       7.54462107       0.00000000       0.00000000 </v>
     <v>      -3.77231054       6.63333351       0.00000000 </v>
     <v>       0.00000000       0.00000000       2.92471165 </v>
    </varray>
    <i name="volume">    146.37008364 </i>
    <varray name="rec_basis" >
     <v>       0.13254476       0.07537688       0.00000000 </v>
     <v>       0.00000000       0.15075376       0.00000000 </v>
     <v>       0.00000000       0.00000000       0.34191405 </v>
    </varray>
   </crystal>
   <varray name="positions" >
    <v>       0.17495735       0.40610177       0.75000000 </v>
    <v>       0.59389823       0.76885558       0.75000000 </v>
    <v>       0.23114442       0.82504265       0.75000000 </v>
    <v>       0.82504265       0.59389823       0.25000000 </v>
    <v>       0.40610177       0.23114442       0.25000000 </v>
    <v>       0.76885558       0.17495735       0.25000000 </v>
    <v>       0.32997228       0.29920782       0.75000000 </v>
    <v>       0.70079218       0.03076445       0.75000000 </v>
    <v>       0.96923555       0.67002772       0.75000000 </v>
    <v>       0.33333333       0.66666667       0.75000000 </v>
    <v>       0.67002772       0.70079218       0.25000000 </v>
    <v>       0.29920782       0.96923555       0.25000000 </v>
    <v>       0.03076445       0.32997228       0.25000000 </v>
    <v>       0.66666667       0.33333333       0.25000000 </v>
   </varray>
  </structure>
  <varray name="forces" >
   <v>      -0.21956017       0.18682166       0.00000000 </v>
   <v>       0.20526491       0.25672037       0.00000000 </v>
   <v>      -0.02171171       0.33055193       0.00000000 </v>
   <v>       0.21956017      -0.18682166       0.00000000 </v>
   <v>      -0.20526491      -0.25672037       0.00000000 </v>
   <v>       0.02171171      -0.33055193       0.00000000 </v>
   <v>       0.15519223      -0.08005380       0.00000000 </v>
   <v>       0.04349391      -0.04714823       0.00000000 </v>
   <v>      -0.12617984      -0.15197151       0.00000000 </v>
   <v>      -0.11825900      -0.26551173       0.00000000 </v>
   <v>      -0.15519223       0.08005380       0.00000000 </v>
   <v>      -0.04349391       0.04714823       0.00000000 </v>
   <v>       0.12617984       0.15197151       0.00000000 </v>
   <v>       0.11825900       0.26551173       0.00000000 </v>
  </varray>
  <varray name="stress" >
   <v>      80.05646407       0.00457872       0.00000000 </v>
   <v>       0.00457872      19.12241381       0.00000000 </v>
   <v>       0.00000000       0.00000000      13.09352936 </v>
  </varray>
  <energy>
   <i name="e_fr_energy">   -114.48893533 </i>
   <i name="e_wo_entrp">   -114.48893533 </i>
   <i name="e_0_energy">      0.00000000 </i>
  </energy>
  <kpoints>
   <generation param="Monkhorst-Pack">
    <v type="int" name="divisions">       4        4        8 </v>
    <v name="usershift">      0.50000000       0.50000000       0.00000000 </v>
    <v name="genvec1">      0.25000000       0.00000000       0.00000000 </v>
    <v name="genvec2">      0.00000000       0.25000000       0.00000000 </v>
    <v name="genvec3">      0.00000000       0.00000000       0.12500000 </v>
    <v name="shift">      0.00000000       0.00000000       0.50000000 </v>
   </generation>
   <varray name="kpointlist" >
    <v>       0.00000000       0.00000000       0.06250000 </v>
    <v>       0.25000000       0.00000000       0.06250000 </v>
    <v>       0.50000000       0.00000000       0.06250000 </v>
    <v>       0.00000000       0.25000000       0.06250000 </v>
    <v>       0.25000000       0.25000000       0.06250000 </v>
    <v>       0.50000000       0.25000000       0.06250000 </v>
    <v>      -0.25000000       0.25000000       0.06250000 </v>
    <v>       0.00000000       0.50000000       0.06250000 </v>
    <v>       0.25000000       0.50000000       0.06250000 </v>
    <v>       0.50000000       0.50000000       0.06250000 </v>
    <v>       0.00000000       0.00000000       0.18750000 </v>
    <v>       0.25000000       0.00000000       0.18750000 </v>
    <v>       0.50000000       0.00000000       0.18750000 </v>
    <v>       0.00000000       0.25000000       0.18750000 </v>
    <v>       0.25000000       0.25000000       0.18750000 </v>
    <v>       0.50000000       0.25000000       0.18750000 </v>
    <v>      -0.25000000       0.25000000       0.18750000 </v>
    <v>       0.00000000       0.50000000       0.18750000 </v>
    <v>       0.25000000       0.50000000       0.18750000 </v>
    <v>       0.50000000       0.50000000       0.18750000 </v>
    <v>       0.00000000       0.00000000       0.31250000 </v>
    <v>       0.25000000       0.00000000       0.31250000 </v>
    <v>       0.50000000       0.00000000       0.31250000 </v>
    <v>       0.00000000       0.25000000       0.31250000 </v>
    <v>       0.25000000       0.25000000       0.31250000 </v>
    <v>       0.50000000       0.25000000       0.31250000 </v>
    <v>      -0.25000000       0.25000000       0.31250000 </v>
    <v>       0.00000000       0.50000000       0.31250000 </v>
    <v>       0.25000000       0.50000000       0.31250000 </v>
    <v>       0.50000000       0.50000000       0.31250000 </v>
    <v>       0.00000000       0.00000000       0.43750000 </v>
    <v>       0.25000000       0.00000000       0.43750000 </v>
    <v>       0.50000000       0.00000000       0.43750000 </v>
    <v>       0.00000000       0.25000000       0.43750000 </v>
    <v>       0.25000000       0.25000000       0.43750000 </v>
    <v>       0.50000000       0.25000000       0.43750000 </v>
    <v>      -0.25000000       0.25000000       0.43750000 </v>
    <v>       0.00000000       0.50000000       0.43750000 </v>
    <v>       0.25000000       0.50000000       0.43750000 </v>
    <v>       0.50000000       0.50000000       0.43750000 </v>
   </varray>
   <varray name="weights" >
    <v>       0.01562500 </v>
    <v>       0.03125000 </v>
    <v>       0.01562500 </v>
    <v>       0.03125000 </v>
    <v>       0.03125000 </v>
    <v>       0.03125000 </v>
    <v>       0.03125000 </v>
    <v>       0.01562500 </v>
    <v>       0.03125000 </v>
    <v>       0.01562500 </v>
    <v>       0.01562500 </v>
    <v>       0.03125000 </v>
    <v>       0.01562500 </v>
    <v>       0.03125000 </v>
    <v>       0.03125000 </v>
    <v>       0.03125000 </v>
    <v>       0.03125000 </v>
    <v>       0.01562500 </v>
    <v>       0.03125000 </v>
    <v>       0.01562500 </v>
    <v>       0.01562500 </v>
    <v>       0.03125000 </v>
    <v>       0.01562500 </v>
    <v>       0.03125000 </v>
    <v>       0.03125000 </v>
    <v>       0.03125000 </v>
    <v>       0.03125000 </v>
    <v>       0.01562500 </v>
    <v>       0.03125000 </v>
    <v>       0.01562500 </v>
    <v>       0.01562500 </v>
    <v>       0.03125000 </v>
    <v>       0.01562500 </v>
    <v>       0.03125000 </v>
    <v>       0.03125000 </v>
    <v>       0.03125000 </v>
    <v>       0.03125000 </v>
    <v>       0.01562500 </v>
    <v>       0.03125000 </v>
    <v>       0.01562500 </v>
   </varray>
  </kpoints>
  <time name="totalsc">   48.76   61.45</time>
 </calculation>
 <calculation>
  <scstep>
   <time name="dav">    2.91    2.92</time>
   <time name="total">    3.12    3.14</time>
   <energy>
    <i name="alphaZ">     94.49587496 </i>
    <i name="ewald">  -2375.57963855 </i>
    <i name="hartreedc">   -715.93545917 </i>
    <i name="XCdc">    119.73742402 </i>
    <i name="pawpsdc">   1566.55288338 </i>
    <i name="pawaedc">  -1474.65156311 </i>
    <i name="eentropy">      0.00000000 </i>
    <i name="bandstr">    -63.95313137 </i>
    <i name="atom">   2734.67633600 </i>
    <i name="e_fr_energy">   -114.65727384 </i>
    <i name="e_wo_entrp">   -114.65727384 </i>
    <i name="e_0_energy">   -114.65727384 </i>
   </energy>
  </scstep>
  <scstep>
   <time name="dav">    2.96    2.97</time>
   <time name="total">    3.17    3.18</time>
   <energy>
    <i name="e_fr_energy">   -114.51369993 </i>
    <i name="e_wo_entrp">   -114.51369993 </i>
    <i name="e_0_energy">   -114.51369993 </i>
   </energy>
  </scstep>
  <scstep>
   <time name="dav">    3.06    3.07</time>
   <time name="total">    3.28    3.30</time>
   <energy>
    <i name="e_fr_energy">   -114.49609042 </i>
    <i name="e_wo_entrp">   -114.49609042 </i>
    <i name="e_0_energy">   -114.49609042 </i>
   </energy>
  </scstep>
  <scstep>
   <time name="dav">    3.04    3.05</time>
   <time name="total">    3.25    3.26</time>
   <energy>
    <i name="e_fr_energy">   -114.49299314 </i>
    <i name="e_wo_entrp">   -114.49299314 </i>
    <i name="e_0_energy">   -114.49299314 </i>
   </energy>
  </scstep>
  <scstep>
   <time name="dav">    3.06    3.06</time>
   <time name="total">    3.26    3.27</time>
   <energy>
    <i name="e_fr_energy">   -114.49187553 </i>
    <i name="e_wo_entrp">   -114.49187553 </i>
    <i name="e_0_energy">   -114.49187553 </i>
   </energy>
  </scstep>
  <scstep>
   <time name="dav">    3.08    3.08</time>
   <time name="total">    3.28    3.29</time>
   <energy>
    <i name="e_fr_energy">   -114.49190177 </i>
    <i name="e_wo_entrp">   -114.49190177 </i>
    <i name="e_0_energy">   -114.49190177 </i>
   </energy>
  </scstep>
  <scstep>
   <time name="dav">    3.06    3.07</time>
   <time name="total">    3.26    3.28</time>
   <energy>
    <i name="e_fr_energy">   -114.49190293 </i>
    <i name="e_wo_entrp">   -114.49190293 </i>
    <i name="e_0_energy">   -114.49190293 </i>
   </energy>
  </scstep>
  <scstep>
   <time name="dav">    2.98    2.99</time>
   <time name="total">    3.18   14.63</time>
   <energy>
    <i name="e_fr_energy">   -114.49190122 </i>
    <i name="e_wo_entrp">   -114.49190122 </i>
    <i name="e_0_energy">   -114.49190122 </i>
   </energy>
  </scstep>
  <scstep>
   <time name="dav">    3.06    3.07</time>
   <time name="total">    3.26    8.57</time>
   <energy>
    <i name="e_fr_energy">   -114.49190231 </i>
    <i name="e_wo_entrp">   -114.49190231 </i>
    <i name="e_0_energy">   -114.49190231 </i>
   </energy>
  </scstep>
  <scstep>
   <time name="dav">    2.97    2.98</time>
   <time name="total">    3.18    3.19</time>
   <energy>
    <i name="e_fr_energy">   -114.49190273 </i>
    <i name="e_wo_entrp">   -114.49190273 </i>
    <i name="e_0_energy">   -114.49190273 </i>
   </energy>
  </scstep>
  <scstep>
   <time name="dav">    3.05    3.06</time>
   <time name="total">    3.25    3.42</time>
   <energy>
    <i name="e_fr_energy">   -114.49190278 </i>
    <i name="e_wo_entrp">   -114.49190278 </i>
    <i name="e_0_energy">   -114.49190278 </i>
   </energy>
  </scstep>
  <scstep>
   <time name="dav">    2.80    2.81</time>
   <time name="total">    3.00    3.02</time>
   <energy>
    <i name="e_fr_energy">   -114.49190282 </i>
    <i name="e_wo_entrp">   -114.49190282 </i>
    <i name="e_0_energy">   -114.49190282 </i>
   </energy>
  </scstep>
  <scstep>
   <time name="dav">    2.50    2.51</time>
   <time name="total">    2.71    2.74</time>
   <energy>
    <i name="e_fr_energy">   -114.49190287 </i>
    <i name="e_wo_entrp">   -114.49190287 </i>
    <i name="e_0_energy">   -114.49190287 </i>
   </energy>
  </scstep>
  <scstep>
   <time name="dav">    2.45    2.47</time>
   <time name="total">    2.52    2.54</time>
   <energy>
    <i name="alphaZ">     94.49587496 </i>
    <i name="ewald">  -2375.57963855 </i>
    <i name="hartreedc">   -729.45188862 </i>
    <i name="XCdc">    120.53402330 </i>
    <i name="pawpsdc">   1541.50262898 </i>
    <i name="pawaedc">  -1449.41386786 </i>
    <i name="eentropy">      0.00000000 </i>
    <i name="bandstr">    -51.25537107 </i>
    <i name="atom">   2734.67633600 </i>
    <i name="e_fr_energy">   -114.49190286 </i>
    <i name="e_wo_entrp">   -114.49190286 </i>
    <i name="e_0_energy">   -114.49190286 </i>
   </energy>
  </scstep>
  <structure>
   <crystal>
    <varray name="basis" >
     <v>       7.65951378       0.00000000       0.00000000 </v>
     <v>      -3.82975689       6.73283352       0.00000000 </v>
     <v>       0.00000000       0.00000000       2.92471165 </v>
    </varray>
    <i name="volume">    150.82805573 </i>
    <varray name="rec_basis" >
     <v>       0.13055659       0.07426294       0.00000000 </v>
     <v>       0.00000000       0.14852588       0.00000000 </v>
     <v>       0.00000000       0.00000000       0.34191405 </v>
    </varray>
   </crystal>
   <varray name="positions" >
    <v>       0.17495735       0.40610177       0.75000000 </v>
    <v>       0.59389823       0.76885558       0.75000000 </v>
    <v>       0.23114442       0.82504265       0.75000000 </v>
    <v>       0.82504265       0.59389823       0.25000000 </v>
    <v>       0.40610177       0.23114442       0.25000000 </v>
    <v>       0.76885558       0.17495735       0.25000000 </v>
    <v>       0.32997228       0.29920782       0.75000000 </v>
    <v>       0.70079218       0.03076445       0.75000000 </v>
    <v>       0.96923555       0.67002772       0.75000000 </v>
    <v>       0.33333333       0.66666667       0.75000000 </v>
    <v>       0.67002772       0.70079218       0.25000000 </v>
    <v>       0.29920782       0.96923555       0.25000000 </v>
    <v>       0.03076445       0.32997228       0.25000000 </v>
    <v>       0.66666667       0.33333333       0.25000000 </v>
   </varray>
  </structure>
  <varray name="forces" >
   <v>       0.01965213       0.31720687       0.00000000 </v>
   <v>      -0.08707299       0.30587722       0.00000000 </v>
   <v>       0.02729889       0.02957001       0.00000000 </v>
   <v>      -0.01965213      -0.31720687       0.00000000 </v>
   <v>       0.08707299      -0.30587722       0.00000000 </v>
   <v>      -0.02729889      -0.02957001       0.00000000 </v>
   <v>      -0.03211939       0.00200333       0.00000000 </v>
   <v>       0.05817004      -0.18812570       0.00000000 </v>
   <v>       0.02743193      -0.03395086       0.00000000 </v>
   <v>      -0.09908373      -0.20766163       0.00000000 </v>
   <v>       0.03211939      -0.00200333       0.00000000 </v>
   <v>      -0.05817004       0.18812570       0.00000000 </v>
   <v>      -0.02743193       0.03395086       0.00000000 </v>
   <v>       0.09908373       0.20766163       0.00000000 </v>
  </varray>
  <varray name="stress" >
   <v>     -17.20127882       0.00428702       0.00000000 </v>
   <v>       0.00428693     -73.23382116       0.00000000 </v>
   <v>       0.00000000       0.00000000     -11.81776536 </v>
  </varray>
  <energy>
   <i name="e_fr_energy">   -114.49190286 </i>
   <i name="e_wo_entrp">   -114.49190286 </i>
   <i name="e_0_energy">      0.00000000 </i>
  </energy>
  <kpoints>
   <generation param="Monkhorst-Pack">
    <v type="int" name="divisions">       4        4        8 </v>
    <v name="usershift">      0.50000000       0.50000000       0.00000000 </v>
    <v name="genvec1">      0.25000000       0.00000000       0.00000000 </v>
    <v name="genvec2">      0.00000000       0.25000000       0.00000000 </v>
    <v name="genvec3">      0.00000000       0.00000000       0.12500000 </v>
    <v name="shift">      0.00000000       0.00000000       0.50000000 </v>
   </generation>
   <varray name="kpointlist" >
    <v>       0.00000000       0.00000000       0.06250000 </v>
    <v>       0.25000000       0.00000000       0.06250000 </v>
    <v>       0.50000000       0.00000000       0.06250000 </v>
    <v>       0.00000000       0.25000000       0.06250000 </v>
    <v>       0.25000000       0.25000000       0.06250000 </v>
    <v>       0.50000000       0.25000000       0.06250000 </v>
    <v>      -0.25000000       0.25000000       0.06250000 </v>
    <v>       0.00000000       0.50000000       0.06250000 </v>
    <v>       0.25000000       0.50000000       0.06250000 </v>
    <v>       0.50000000       0.50000000       0.06250000 </v>
    <v>       0.00000000       0.00000000       0.18750000 </v>
    <v>       0.25000000       0.00000000       0.18750000 </v>
    <v>       0.50000000       0.00000000       0.18750000 </v>
    <v>       0.00000000       0.25000000       0.18750000 </v>
    <v>       0.25000000       0.25000000       0.18750000 </v>
    <v>       0.50000000       0.25000000       0.18750000 </v>
    <v>      -0.25000000       0.25000000       0.18750000 </v>
    <v>       0.00000000       0.50000000       0.18750000 </v>
    <v>       0.25000000       0.50000000       0.18750000 </v>
    <v>       0.50000000       0.50000000       0.18750000 </v>
    <v>       0.00000000       0.00000000       0.31250000 </v>
    <v>       0.25000000       0.00000000       0.31250000 </v>
    <v>       0.50000000       0.00000000       0.31250000 </v>
    <v>       0.00000000       0.25000000       0.31250000 </v>
    <v>       0.25000000       0.25000000       0.31250000 </v>
    <v>       0.50000000       0.25000000       0.31250000 </v>
    <v>      -0.25000000       0.25000000       0.31250000 </v>
    <v>       0.00000000       0.50000000       0.31250000 </v>
    <v>       0.25000000       0.50000000       0.31250000 </v>
    <v>       0.50000000       0.50000000       0.31250000 </v>
    <v>       0.00000000       0.00000000       0.43750000 </v>
    <v>       0.25000000       0.00000000       0.43750000 </v>
    <v>       0.50000000       0.00000000       0.43750000 </v>
    <v>       0.00000000       0.25000000       0.43750000 </v>
    <v>       0.25000000       0.25000000       0.43750000 </v>
    <v>       0.50000000       0.25000000       0.43750000 </v>
    <v>      -0.25000000       0.25000000       0.43750000 </v>
    <v>       0.00000000       0.50000000       0.43750000 </v>
    <v>       0.25000000       0.50000000       0.43750000 </v>
    <v>       0.50000000       0.50000000       0.43750000 </v>
   </varray>
   <varray name="weights" >
    <v>       0.01562500 </v>
    <v>       0.03125000 </v>
    <v>       0.01562500 </v>
    <v>       0.03125000 </v>
    <v>       0.03125000 </v>
    <v>       0.03125000 </v>
    <v>       0.03125000 </v>
    <v>       0.01562500 </v>
    <v>       0.03125000 </v>
    <v>       0.01562500 </v>
    <v>       0.01562500 </v>
    <v>       0.03125000 </v>
    <v>       0.01562500 </v>
    <v>       0.03125000 </v>
    <v>       0.03125000 </v>
    <v>       0.03125000 </v>
    <v>       0.03125000 </v>
    <v>       0.01562500 </v>
    <v>       0.03125000 </v>
    <v>       0.01562500 </v>
    <v>       0.01562500 </v>
    <v>       0.03125000 </v>
    <v>       0.01562500 </v>
    <v>       0.03125000 </v>
    <v>       0.03125000 </v>
    <v>       0.03125000 </v>
    <v>       0.03125000 </v>
    <v>       0.01562500 </v>
    <v>       0.03125000 </v>
    <v>       0.01562500 </v>
    <v>       0.01562500 </v>
    <v>       0.03125000 </v>
    <v>       0.01562500 </v>
    <v>       0.03125000 </v>
    <v>       0.03125000 </v>
    <v>       0.03125000 </v>
    <v>       0.03125000 </v>
    <v>       0.01562500 </v>
    <v>       0.03125000 </v>
    <v>       0.01562500 </v>
   </varray>
  </kpoints>
  <time name="totalsc">   47.99   65.64</time>
 </calculation>
 <calculation>
  <scstep>
   <time name="dav">    2.87    2.88</time>
   <time name="total">    3.08    3.14</time>
   <energy>
    <i name="alphaZ">     97.37392191 </i>
    <i name="ewald">  -2402.27115265 </i>
    <i name="hartreedc">   -735.11243604 </i>
    <i name="XCdc">    122.62940448 </i>
    <i name="pawpsdc">   1541.50265317 </i>
    <i name="pawaedc">  -1449.41389103 </i>
    <i name="eentropy">      0.00000000 </i>
    <i name="bandstr">    -24.13630753 </i>
    <i name="atom">   2734.67633600 </i>
    <i name="e_fr_energy">   -114.75147170 </i>
    <i name="e_wo_entrp">   -114.75147170 </i>
    <i name="e_0_energy">   -114.75147170 </i>
   </energy>
  </scstep>
  <scstep>
   <time name="dav">    3.03    3.03</time>
   <time name="total">    3.24    3.25</time>
   <energy>
    <i name="e_fr_energy">   -114.53794364 </i>
    <i name="e_wo_entrp">   -114.53794364 </i>
    <i name="e_0_energy">   -114.53794364 </i>
   </energy>
  </scstep>
  <scstep>
   <time name="dav">    3.08    3.08</time>
   <time name="total">    3.29    3.30</time>
   <energy>
    <i name="e_fr_energy">   -114.49592666 </i>
    <i name="e_wo_entrp">   -114.49592666 </i>
    <i name="e_0_energy">   -114.49592666 </i>
   </energy>
  </scstep>
  <scstep>
   <time name="dav">    2.98    2.98</time>
   <time name="total">    3.18    3.19</time>
   <energy>
    <i name="e_fr_energy">   -114.49041582 </i>
    <i name="e_wo_entrp">   -114.49041582 </i>
    <i name="e_0_energy">   -114.49041582 </i>
   </energy>
  </scstep>
  <scstep>
   <time name="dav">    3.08    3.08</time>
   <time name="total">    3.29    3.31</time>
   <energy>
    <i name="e_fr_energy">   -114.48879266 </i>
    <i name="e_wo_entrp">   -114.48879266 </i>
    <i name="e_0_energy">   -114.48879266 </i>
   </energy>
  </scstep>
  <scstep>
   <time name="dav">    3.03    3.03</time>
   <time name="total">    3.24    3.24</time>
   <energy>
    <i name="e_fr_energy">   -114.48884426 </i>
    <i name="e_wo_entrp">   -114.48884426 </i>
    <i name="e_0_energy">   -114.48884426 </i>
   </energy>
  </scstep>
  <scstep>
   <time name="dav">    3.07    3.08</time>
   <time name="total">    3.28   15.16</time>
   <energy>
    <i name="e_fr_energy">   -114.48886126 </i>
    <i name="e_wo_entrp">   -114.48886126 </i>
    <i name="e_0_energy">   -114.48886126 </i>
   </energy>
  </scstep>
  <scstep>
   <time name="dav">    2.99    3.00</time>
   <time name="total">    3.20   10.11</time>
   <energy>
    <i name="e_fr_energy">   -114.48885159 </i>
    <i name="e_wo_entrp">   -114.48885159 </i>
    <i name="e_0_energy">   -114.48885159 </i>
   </energy>
  </scstep>
  <scstep>
   <time name="dav">    3.04    3.05</time>
   <time name="total">    3.25    3.37</time>
   <energy>
    <i name="e_fr_energy">   -114.48885318 </i>
    <i name="e_wo_entrp">   -114.48885318 </i>
    <i name="e_0_energy">   -114.48885318 </i>
   </energy>
  </scstep>
  <scstep>
   <time name="dav">    3.04    3.05</time>
   <time name="total">    3.24    3.26</time>
   <energy>
    <i name="e_fr_energy">   -114.48885314 </i>
    <i name="e_wo_entrp">   -114.48885314 </i>
    <i name="e_0_energy">   -114.48885314 </i>
   </energy>
  </scstep>
  <scstep>
   <time name="dav">    3.03    3.04</time>
   <time name="total">    3.24    3.28</time>
   <energy>
    <i name="e_fr_energy">   -114.48885308 </i>
    <i name="e_wo_entrp">   -114.48885308 </i>
    <i name="e_0_energy">   -114.48885308 </i>
   </energy>
  </scstep>
  <scstep>
   <time name="dav">    2.99    3.00</time>
   <time name="total">    3.20    3.22</time>
   <energy>
    <i name="e_fr_energy">   -114.48885307 </i>
    <i name="e_wo_entrp">   -114.48885307 </i>
    <i name="e_0_energy">   -114.48885307 </i>
   </energy>
  </scstep>
  <scstep>
   <time name="dav">    2.56    2.57</time>
   <time name="total">    2.77    2.78</time>
   <energy>
    <i name="e_fr_energy">   -114.48885304 </i>
    <i name="e_wo_entrp">   -114.48885304 </i>
    <i name="e_0_energy">   -114.48885304 </i>
   </energy>
  </scstep>
  <scstep>
   <time name="dav">    2.46    2.47</time>
   <time name="total">    2.53    2.54</time>
   <energy>
    <i name="alphaZ">     97.37392191 </i>
    <i name="ewald">  -2402.27115265 </i>
    <i name="hartreedc">   -721.71217214 </i>
    <i name="XCdc">    121.83056040 </i>
    <i name="pawpsdc">   1566.55448292 </i>
    <i name="pawaedc">  -1474.65317926 </i>
    <i name="eentropy">      0.00000000 </i>
    <i name="bandstr">    -36.28765020 </i>
    <i name="atom">   2734.67633600 </i>
    <i name="e_fr_energy">   -114.48885303 </i>
    <i name="e_wo_entrp">   -114.48885303 </i>
    <i name="e_0_energy">   -114.48885303 </i>
   </energy>
  </scstep>
  <structure>
   <crystal>
    <varray name="basis" >
     <v>       7.65951378       0.00000000       0.00000000 </v>
     <v>      -3.82975689       6.53383351       0.00000000 </v>
     <v>       0.00000000       0.00000000       2.92471165 </v>
    </varray>
    <i name="volume">    146.37008364 </i>
    <varray name="rec_basis" >
     <v>       0.13055659       0.07652475       0.00000000 </v>
     <v>       0.00000000       0.15304951       0.00000000 </v>
     <v>       0.00000000       0.00000000       0.34191405 </v>
    </varray>
   </crystal>
   <varray name="positions" >
    <v>       0.17495735       0.40610177       0.75000000 </v>
    <v>       0.59389823       0.76885558       0.75000000 </v>
    <v>       0.23114442       0.82504265       0.75000000 </v>
    <v>       0.82504265       0.59389823       0.25000000 </v>
    <v>       0.40610177       0.23114442       0.25000000 </v>
    <v>       0.76885558       0.17495735       0.25000000 </v>
    <v>       0.32997228       0.29920782       0.75000000 </v>
    <v>       0.70079218       0.03076445       0.75000000 </v>
    <v>       0.96923555       0.67002772       0.75000000 </v>
    <v>       0.33333333       0.66666667       0.75000000 </v>
    <v>       0.67002772       0.70079218       0.25000000 </v>
    <v>       0.29920782       0.96923555       0.25000000 </v>
    <v>       0.03076445       0.32997228       0.25000000 </v>
    <v>       0.66666667       0.33333333       0.25000000 </v>
   </varray>
  </structure>
  <varray name="forces" >
   <v>      -0.03037263      -0.39759957       0.00000000 </v>
   <v>       0.09745894      -0.38387731       0.00000000 </v>
   <v>      -0.02951390      -0.02437439       0.00000000 </v>
   <v>       0.03037263       0.39759957       0.00000000 </v>
   <v>      -0.09745894       0.38387731       0.00000000 </v>
   <v>       0.02951390       0.02437439       0.00000000 </v>
   <v>       0.03390382      -0.00572001       0.00000000 </v>
   <v>      -0.06689851       0.26535002       0.00000000 </v>
   <v>      -0.03588543       0.03173156       0.00000000 </v>
   <v>       0.11389582       0.28094227       0.00000000 </v>
   <v>      -0.03390382       0.00572001       0.00000000 </v>
   <v>       0.06689851      -0.26535002       0.00000000 </v>
   <v>       0.03588543      -0.03173156       0.00000000 </v>
   <v>      -0.11389582      -0.28094227       0.00000000 </v>
  </varray>
  <varray name="stress" >
   <v>      18.95841278       0.00444564       0.00000000 </v>
   <v>       0.00444562      80.22672507       0.00000000 </v>
   <v>       0.00000000       0.00000000      13.09020951 </v>
  </varray>
  <energy>
   <i name="e_fr_energy">   -114.48885303 </i>
   <i name="e_wo_entrp">   -114.48885303 </i>
   <i name="e_0_energy">      0.00000000 </i>
  </energy>
  <kpoints>
   <generation param="Monkhorst-Pack">
    <v type="int" name="divisions">       4        4        8 </v>
    <v name="usershift">      0.50000000       0.50000000       0.00000000 </v>
    <v name="genvec1">      0.25000000       0.00000000       0.00000000 </v>
    <v name="genvec2">      0.00000000       0.25000000       0.00000000 </v>
    <v name="genvec3">      0.00000000       0.00000000       0.12500000 </v>
    <v name="shift">      0.00000000       0.00000000       0.50000000 </v>
   </generation>
   <varray name="kpointlist" >
    <v>       0.00000000       0.00000000       0.06250000 </v>
    <v>       0.25000000       0.00000000       0.06250000 </v>
    <v>       0.50000000       0.00000000       0.06250000 </v>
    <v>       0.25000000       0.25000000       0.06250000 </v>
    <v>       0.00000000       0.00000000       0.18750000 </v>
    <v>       0.25000000       0.00000000       0.18750000 </v>
    <v>       0.50000000       0.00000000       0.18750000 </v>
    <v>       0.25000000       0.25000000       0.18750000 </v>
    <v>       0.00000000       0.00000000       0.31250000 </v>
    <v>       0.25000000       0.00000000       0.31250000 </v>
    <v>       0.50000000       0.00000000       0.31250000 </v>
    <v>       0.25000000       0.25000000       0.31250000 </v>
    <v>       0.00000000       0.00000000       0.43750000 </v>
    <v>       0.25000000       0.00000000       0.43750000 </v>
    <v>       0.50000000       0.00000000       0.43750000 </v>
    <v>       0.25000000       0.25000000       0.43750000 </v>
   </varray>
   <varray name="weights" >
    <v>       0.01562500 </v>
    <v>       0.09375000 </v>
    <v>       0.04687500 </v>
    <v>       0.09375000 </v>
    <v>       0.01562500 </v>
    <v>       0.09375000 </v>
    <v>       0.04687500 </v>
    <v>       0.09375000 </v>
    <v>       0.01562500 </v>
    <v>       0.09375000 </v>
    <v>       0.04687500 </v>
    <v>       0.09375000 </v>
    <v>       0.01562500 </v>
    <v>       0.09375000 </v>
    <v>       0.04687500 </v>
    <v>       0.09375000 </v>
   </varray>
  </kpoints>
  <time name="totalsc">   48.04   67.25</time>
 </calculation>
 <calculation>
  <scstep>
   <time name="dav">    1.10    1.10</time>
   <time name="total">    1.25    1.31</time>
   <energy>
    <i name="alphaZ">     94.49587496 </i>
    <i name="ewald">  -2379.67972719 </i>
    <i name="hartreedc">   -713.78518253 </i>
    <i name="XCdc">    119.73611390 </i>
    <i name="pawpsdc">   1566.55465167 </i>
    <i name="pawaedc">  -1474.65334536 </i>
    <i name="eentropy">      0.00000000 </i>
    <i name="bandstr">    -61.98585761 </i>
    <i name="atom">   2734.67633600 </i>
    <i name="e_fr_energy">   -114.64113616 </i>
    <i name="e_wo_entrp">   -114.64113616 </i>
    <i name="e_0_energy">   -114.64113616 </i>
   </energy>
  </scstep>
  <scstep>
   <time name="dav">    1.17    1.17</time>
   <time name="total">    1.32    1.36</time>
   <energy>
    <i name="e_fr_energy">   -114.50562491 </i>
    <i name="e_wo_entrp">   -114.50562491 </i>
    <i name="e_0_energy">   -114.50562491 </i>
   </energy>
  </scstep>
  <scstep>
   <time name="dav">    1.22    1.22</time>
   <time name="total">    1.37    1.38</time>
   <energy>
    <i name="e_fr_energy">   -114.48822301 </i>
    <i name="e_wo_entrp">   -114.48822301 </i>
    <i name="e_0_energy">   -114.48822301 </i>
   </energy>
  </scstep>
  <scstep>
   <time name="dav">    1.21    1.21</time>
   <time name="total">    1.36    1.37</time>
   <energy>
    <i name="e_fr_energy">   -114.48383282 </i>
    <i name="e_wo_entrp">   -114.48383282 </i>
    <i name="e_0_energy">   -114.48383282 </i>
   </energy>
  </scstep>
  <scstep>
   <time name="dav">    1.23    1.23</time>
   <time name="total">    1.38    1.39</time>
   <energy>
    <i name="e_fr_energy">   -114.48281793 </i>
    <i name="e_wo_entrp">   -114.48281793 </i>
    <i name="e_0_energy">   -114.48281793 </i>
   </energy>
  </scstep>
  <scstep>
   <time name="dav">    1.23    1.23</time>
   <time name="total">    1.38    1.39</time>
   <energy>
    <i name="e_fr_energy">   -114.48288163 </i>
    <i name="e_wo_entrp">   -114.48288163 </i>
    <i name="e_0_energy">   -114.48288163 </i>
   </energy>
  </scstep>
  <scstep>
   <time name="dav">    1.22    1.23</time>
   <time name="total">    1.38   14.16</time>
   <energy>
    <i name="e_fr_energy">   -114.48291906 </i>
    <i name="e_wo_entrp">   -114.48291906 </i>
    <i name="e_0_energy">   -114.48291906 </i>
   </energy>
  </scstep>
  <scstep>
   <time name="dav">    1.21    1.21</time>
   <time name="total">    1.36    1.38</time>
   <energy>
    <i name="e_fr_energy">   -114.48293740 </i>
    <i name="e_wo_entrp">   -114.48293740 </i>
    <i name="e_0_energy">   -114.48293740 </i>
   </energy>
  </scstep>
  <scstep>
   <time name="dav">    1.24    1.24</time>
   <time name="total">    1.40    1.43</time>
   <energy>
    <i name="e_fr_energy">   -114.48296427 </i>
    <i name="e_wo_entrp">   -114.48296427 </i>
    <i name="e_0_energy">   -114.48296427 </i>
   </energy>
  </scstep>
  <scstep>
   <time name="dav">    1.25    1.25</time>
   <time name="total">    1.41    1.41</time>
   <energy>
[...]
       <r>   -2.0837    1.0000 </r>
       <r>   -1.8912    1.0000 </r>
       <r>   -1.3989    1.0000 </r>
       <r>   -1.2632    1.0000 </r>
       <r>   -0.4145    1.0000 </r>
       <r>    0.1481    1.0000 </r>
       <r>    0.7676    1.0000 </r>
       <r>    1.2214    1.0000 </r>
       <r>    1.2681    1.0000 </r>
       <r>    1.4145    1.0000 </r>
       <r>    1.9359    1.0000 </r>
       <r>    2.1047    1.0000 </r>
       <r>    2.2609    1.0000 </r>
       <r>    2.5865    1.0000 </r>
       <r>    3.7424    1.0000 </r>
       <r>    3.8247    1.0000 </r>
       <r>    4.6340    1.0000 </r>
       <r>    4.7714    1.0000 </r>
       <r>    4.9761    1.0000 </r>
       <r>    5.1511    1.0000 </r>
       <r>    5.5630    1.0000 </r>
       <r>    5.6058    1.0000 </r>
       <r>   11.1432    0.0000 </r>
       <r>   11.5203    0.0000 </r>
       <r>   12.2282    0.0000 </r>
       <r>   12.2608    0.0000 </r>
       <r>   12.4632    0.0000 </r>
       <r>   13.1073    0.0000 </r>
       <r>   13.1690    0.0000 </r>
       <r>   13.3112    0.0000 </r>
       <r>   13.3824    0.0000 </r>
       <r>   13.6232    0.0000 </r>
       <r>   13.8880    0.0000 </r>
       <r>   14.1383    0.0000 </r>
       <r>   15.3862    0.0000 </r>
       <r>   15.6337    0.0000 </r>
       <r>   16.0821    0.0000 </r>
       <r>   16.2460    0.0000 </r>
      </set>
      <set comment="kpoint 16">
       <r>   -9.3324    1.0000 </r>
       <r>   -9.0914    1.0000 </r>
       <r>   -8.7993    1.0000 </r>
       <r>   -8.4890    1.0000 </r>
       <r>   -8.3495    1.0000 </r>
       <r>   -8.2049    1.0000 </r>
       <r>   -7.8447    1.0000 </r>
       <r>   -7.8059    1.0000 </r>
       <r>   -2.5375    1.0000 </r>
       <r>   -2.4129    1.0000 </r>
       <r>   -2.1420    1.0000 </r>
       <r>   -1.7598    1.0000 </r>
       <r>   -1.5242    1.0000 </r>
       <r>   -1.1693    1.0000 </r>
       <r>   -0.3297    1.0000 </r>
       <r>    0.2935    1.0000 </r>
       <r>    0.4906    1.0000 </r>
       <r>    0.7980    1.0000 </r>
       <r>    1.5671    1.0000 </r>
       <r>    1.7651    1.0000 </r>
       <r>    1.9432    1.0000 </r>
       <r>    2.0314    1.0000 </r>
       <r>    2.2122    1.0000 </r>
       <r>    2.5221    1.0000 </r>
       <r>    3.7193    1.0000 </r>
       <r>    3.8323    1.0000 </r>
       <r>    4.6665    1.0000 </r>
       <r>    4.7365    1.0000 </r>
       <r>    5.0352    1.0000 </r>
       <r>    5.2075    1.0000 </r>
       <r>    5.4173    1.0000 </r>
       <r>    5.6443    1.0000 </r>
       <r>   11.3184    0.0000 </r>
       <r>   11.5298    0.0000 </r>
       <r>   12.0435    0.0000 </r>
       <r>   12.2533    0.0000 </r>
       <r>   12.6629    0.0000 </r>
       <r>   12.8745    0.0000 </r>
       <r>   12.9771    0.0000 </r>
       <r>   13.1800    0.0000 </r>
       <r>   13.3789    0.0000 </r>
       <r>   13.6688    0.0000 </r>
       <r>   14.1302    0.0000 </r>
       <r>   14.2666    0.0000 </r>
       <r>   15.3585    0.0000 </r>
       <r>   15.5599    0.0000 </r>
       <r>   16.3410    0.0000 </r>
       <r>   16.4922    0.0000 </r>
      </set>
     </set>
    </set>
   </array>
  </eigenvalues>
  <separator name="orbital magnetization" >
   <v name="MAGDIPOLOUT">      0.00000000      0.00000000      0.00000000</v>
  </separator>
  <dos>
   <i name="efermi">      6.63617996 </i>
   <total>
    <array>
     <dimension dim="1">gridpoints</dimension>
     <dimension dim="2">spin</dimension>
     <field>energy</field>
     <field>total</field>
     <field>integrated</field>
     <set>
      <set comment="spin 1">
       <r>   -12.8730     0.0000     0.0000 </r>
       <r>   -12.7705     0.0000     0.0000 </r>
       <r>   -12.6680     0.0000     0.0000 </r>
       <r>   -12.5654     0.0000     0.0000 </r>
       <r>   -12.4629     0.0000     0.0000 </r>
       <r>   -12.3603     0.0000     0.0000 </r>
       <r>   -12.2578     0.0000     0.0000 </r>
       <r>   -12.1552     0.0000     0.0000 </r>
       <r>   -12.0527     0.0000     0.0000 </r>
       <r>   -11.9501     0.0000     0.0000 </r>
       <r>   -11.8476     0.0000     0.0000 </r>
       <r>   -11.7450     0.0000     0.0000 </r>
       <r>   -11.6425     0.0000     0.0000 </r>
       <r>   -11.5400     0.0000     0.0000 </r>
       <r>   -11.4374     0.3047     0.0312 </r>
       <r>   -11.3349     1.6157     0.1969 </r>
       <r>   -11.2323     0.0000     0.2188 </r>
       <r>   -11.1298     0.0015     0.2189 </r>
       <r>   -11.0272     2.3415     0.4901 </r>
       <r>   -10.9247     1.8285     0.7188 </r>
       <r>   -10.8221     0.9142     0.8125 </r>
       <r>   -10.7196     1.8265     0.9998 </r>
       <r>   -10.6171     2.7048     1.2774 </r>
       <r>   -10.5145     2.6490     1.5529 </r>
       <r>   -10.4120     0.3043     1.5937 </r>
       <r>   -10.3094     3.5165     1.9544 </r>
       <r>   -10.2069     1.1772     2.2770 </r>
       <r>   -10.1043     2.1780     2.6608 </r>
       <r>   -10.0018     3.3522     3.1562 </r>
       <r>    -9.8992     0.0227     3.1586 </r>
       <r>    -9.7967     2.6353     3.6140 </r>
       <r>    -9.6941     4.1587     4.0515 </r>
       <r>    -9.5916     0.0002     4.0625 </r>
       <r>    -9.4891     5.0991     4.5854 </r>
       <r>    -9.3865     2.1332     5.1562 </r>
       <r>    -9.2840     4.0679     5.5734 </r>
       <r>    -9.1814     3.9477     5.9986 </r>
       <r>    -9.0789     6.3163     6.7102 </r>
       <r>    -8.9763     3.3522     7.0625 </r>
       <r>    -8.8738     2.5846     7.3275 </r>
       <r>    -8.7712     7.7039     8.1338 </r>
       <r>    -8.6687     1.8323     8.3441 </r>
       <r>    -8.5661     6.3523     9.0889 </r>
       <r>    -8.4636     5.9290     9.7330 </r>
       <r>    -8.3611     2.8222    10.1644 </r>
       <r>    -8.2585     5.8458    10.9432 </r>
       <r>    -8.1560     7.3132    11.7187 </r>
       <r>    -8.0534     2.6194    11.9874 </r>
       <r>    -7.9509     7.4048    12.9781 </r>
       <r>    -7.8483    14.5279    14.8023 </r>
       <r>    -7.7458     9.4471    16.0000 </r>
       <r>    -7.6432     0.0000    16.0000 </r>
       <r>    -7.5407     0.0000    16.0000 </r>
       <r>    -7.4382     0.0000    16.0000 </r>
       <r>    -7.3356     0.0000    16.0000 </r>
       <r>    -7.2331     0.0000    16.0000 </r>
       <r>    -7.1305     0.0000    16.0000 </r>
       <r>    -7.0280     0.0000    16.0000 </r>
       <r>    -6.9254     0.0000    16.0000 </r>
       <r>    -6.8229     0.0000    16.0000 </r>
       <r>    -6.7203     0.0000    16.0000 </r>
       <r>    -6.6178     0.0000    16.0000 </r>
       <r>    -6.5152     0.0000    16.0000 </r>
       <r>    -6.4127     0.0000    16.0000 </r>
       <r>    -6.3102     0.0000    16.0000 </r>
       <r>    -6.2076     0.0000    16.0000 </r>
       <r>    -6.1051     0.0000    16.0000 </r>
       <r>    -6.0025     0.0000    16.0000 </r>
       <r>    -5.9000     0.0000    16.0000 </r>
       <r>    -5.7974     0.0000    16.0000 </r>
       <r>    -5.6949     0.0000    16.0000 </r>
       <r>    -5.5923     0.0000    16.0000 </r>
       <r>    -5.4898     0.0000    16.0000 </r>
       <r>    -5.3872     0.0000    16.0000 </r>
       <r>    -5.2847     0.0000    16.0000 </r>
       <r>    -5.1822     0.0000    16.0000 </r>
       <r>    -5.0796     0.0000    16.0000 </r>
       <r>    -4.9771     0.0000    16.0000 </r>
       <r>    -4.8745     0.0000    16.0000 </r>
       <r>    -4.7720     0.0000    16.0000 </r>
       <r>    -4.6694     0.0000    16.0000 </r>
       <r>    -4.5669     0.0000    16.0000 </r>
       <r>    -4.4643     0.0000    16.0000 </r>
       <r>    -4.3618     0.0000    16.0000 </r>
       <r>    -4.2592     0.0000    16.0000 </r>
       <r>    -4.1567     0.0000    16.0000 </r>
       <r>    -4.0542     0.0000    16.0000 </r>
       <r>    -3.9516     0.0000    16.0000 </r>
       <r>    -3.8491     0.0000    16.0000 </r>
       <r>    -3.7465     0.0000    16.0000 </r>
       <r>    -3.6440     0.0000    16.0000 </r>
       <r>    -3.5414     0.0000    16.0000 </r>
       <r>    -3.4389     0.0000    16.0000 </r>
       <r>    -3.3363     0.0000    16.0000 </r>
       <r>    -3.2338     0.0000    16.0000 </r>
       <r>    -3.1313     0.0000    16.0000 </r>
       <r>    -3.0287     0.0000    16.0000 </r>
       <r>    -2.9262     2.7342    16.2804 </r>
       <r>    -2.8236     0.0000    16.2812 </r>
       <r>    -2.7211     0.0000    16.2813 </r>
       <r>    -2.6185     5.9477    16.8912 </r>
       <r>    -2.5160     1.8263    17.0935 </r>
       <r>    -2.4134     4.5194    17.5572 </r>
       <r>    -2.3109     3.0579    17.9698 </r>
       <r>    -2.2083     4.5711    18.5625 </r>
       <r>    -2.1058     6.7489    19.2546 </r>
       <r>    -2.0033     1.9349    19.7922 </r>
       <r>    -1.9007     0.4231    19.8871 </r>
       <r>    -1.7982     5.3106    20.6696 </r>
       <r>    -1.6956     1.8285    20.8750 </r>
       <r>    -1.5931     1.8285    21.0625 </r>
       <r>    -1.4905     4.1404    21.4871 </r>
       <r>    -1.3880     2.0337    21.7710 </r>
       <r>    -1.2854     2.5697    22.2010 </r>
       <r>    -1.1829     5.7112    22.9919 </r>
       <r>    -1.0803     0.3707    23.3818 </r>
       <r>    -0.9778     0.3047    23.5937 </r>
       <r>    -0.8753     1.2035    23.7172 </r>
       <r>    -0.7727     2.1372    24.0004 </r>
       <r>    -0.6702     4.5698    24.5000 </r>
       <r>    -0.5676     2.6816    24.7750 </r>
       <r>    -0.4651     2.4380    25.0313 </r>
       <r>    -0.3625     2.7427    25.3125 </r>
       <r>    -0.2600     7.3599    26.0672 </r>
       <r>    -0.1574     1.0574    26.2959 </r>
       <r>    -0.0549     2.7402    26.8435 </r>
       <r>     0.0477     3.6569    27.2187 </r>
       <r>     0.1502     0.5613    27.2763 </r>
       <r>     0.2527     3.1590    27.6364 </r>
       <r>     0.3553     5.4822    28.3434 </r>
       <r>     0.4578     6.0744    28.9667 </r>
       <r>     0.5604     3.9758    29.5327 </r>
       <r>     0.6629     3.5011    30.0153 </r>
       <r>     0.7655     1.2447    30.1589 </r>
       <r>     0.8680     8.7333    31.2081 </r>
       <r>     0.9706     0.5484    31.6812 </r>
       <r>     1.0731     4.2733    32.4382 </r>
       <r>     1.1756     1.8284    32.8125 </r>
       <r>     1.2782     4.3039    33.2538 </r>
       <r>     1.3807     9.6444    34.3015 </r>
       <r>     1.4833     3.3737    34.6897 </r>
       <r>     1.5858     6.5309    35.7010 </r>
       <r>     1.6884     7.1079    36.5101 </r>
       <r>     1.7909     6.4057    37.2506 </r>
       <r>     1.8935    12.7216    38.5858 </r>
       <r>     1.9960     7.5764    39.6207 </r>
       <r>     2.0986     8.4006    40.7364 </r>
       <r>     2.2011     2.8483    41.1046 </r>
       <r>     2.3036     4.0455    41.6961 </r>
       <r>     2.4062     7.5280    42.6157 </r>
       <r>     2.5087     1.2846    42.8505 </r>
       <r>     2.6113     8.3768    44.1090 </r>
       <r>     2.7138     0.9142    44.5000 </r>
       <r>     2.8164     1.8285    44.6875 </r>
       <r>     2.9189     2.7841    44.9730 </r>
       <r>     3.0215     5.4850    45.7187 </r>
       <r>     3.1240     3.6532    46.0934 </r>
       <r>     3.2266     5.8813    46.8843 </r>
       <r>     3.3291     8.1131    47.9570 </r>
       <r>     3.4316     0.6107    48.0314 </r>
       <r>     3.5342     6.3297    48.6805 </r>
       <r>     3.6367     7.6360    49.4707 </r>
       <r>     3.7393     3.0262    50.1541 </r>
       <r>     3.8418     4.3180    50.6615 </r>
       <r>     3.9444     3.0467    51.0937 </r>
       <r>     4.0469     0.1389    51.1080 </r>
       <r>     4.1495     1.8242    51.3746 </r>
       <r>     4.2520     1.8309    51.5628 </r>
       <r>     4.3545     0.0000    51.7500 </r>
       <r>     4.4571     1.5452    51.9084 </r>
       <r>     4.5596     1.6010    52.1017 </r>
       <r>     4.6622     5.9804    53.2070 </r>
       <r>     4.7647     4.7097    53.8267 </r>
       <r>     4.8673     3.6511    54.6869 </r>
       <r>     4.9698     9.9075    56.0472 </r>
       <r>     5.0724     5.1242    56.8692 </r>
       <r>     5.1749     1.1405    57.3357 </r>
       <r>     5.2775    13.5625    58.9533 </r>
       <r>     5.3800     9.1014    59.9021 </r>
       <r>     5.4825     2.6792    60.2435 </r>
       <r>     5.5851     0.9150    60.6251 </r>
       <r>     5.6876     7.4148    61.4791 </r>
       <r>     5.7902     2.7427    61.7812 </r>
       <r>     5.8927     1.5546    61.9407 </r>
       <r>     5.9953     0.6004    62.3116 </r>
       <r>     6.0978     2.7427    62.7813 </r>
       <r>     6.2004     4.5396    63.2468 </r>
       <r>     6.3029     2.7427    63.5313 </r>
       <r>     6.4055     3.9616    63.9375 </r>
       <r>     6.5080     0.3047    63.9687 </r>
       <r>     6.6105     0.3047    64.0000 </r>
       <r>     6.7131     0.0000    64.0000 </r>
       <r>     6.8156     0.0000    64.0000 </r>
       <r>     6.9182     0.0000    64.0000 </r>
       <r>     7.0207     0.0000    64.0000 </r>
       <r>     7.1233     0.0000    64.0000 </r>
       <r>     7.2258     0.0000    64.0000 </r>
       <r>     7.3284     0.0000    64.0000 </r>
       <r>     7.4309     0.0000    64.0000 </r>
       <r>     7.5335     0.0000    64.0000 </r>
       <r>     7.6360     0.0000    64.0000 </r>
       <r>     7.7385     0.0000    64.0000 </r>
       <r>     7.8411     0.0000    64.0000 </r>
       <r>     7.9436     0.0000    64.0000 </r>
       <r>     8.0462     0.0000    64.0000 </r>
       <r>     8.1487     0.0000    64.0000 </r>
       <r>     8.2513     0.0000    64.0000 </r>
       <r>     8.3538     0.0000    64.0000 </r>
       <r>     8.4564     0.0000    64.0000 </r>
       <r>     8.5589     0.0000    64.0000 </r>
       <r>     8.6614     0.0000    64.0000 </r>
       <r>     8.7640     0.0000    64.0000 </r>
       <r>     8.8665     0.0000    64.0000 </r>
       <r>     8.9691     0.0000    64.0000 </r>
       <r>     9.0716     0.0000    64.0000 </r>
       <r>     9.1742     0.0000    64.0000 </r>
       <r>     9.2767     0.0000    64.0000 </r>
       <r>     9.3793     0.0000    64.0000 </r>
       <r>     9.4818     0.0000    64.0000 </r>
       <r>     9.5844     0.0000    64.0000 </r>
       <r>     9.6869     0.0000    64.0000 </r>
       <r>     9.7894     0.0000    64.0000 </r>
       <r>     9.8920     0.0000    64.0000 </r>
       <r>     9.9945     0.0000    64.0000 </r>
       <r>    10.0971     0.0000    64.0000 </r>
       <r>    10.1996     0.0000    64.0000 </r>
       <r>    10.3022     0.0000    64.0000 </r>
       <r>    10.4047     0.0000    64.0000 </r>
       <r>    10.5073     0.0000    64.0000 </r>
       <r>    10.6098     0.0000    64.0000 </r>
       <r>    10.7124     0.0000    64.0000 </r>
       <r>    10.8149     0.0000    64.0000 </r>
       <r>    10.9174     0.0000    64.0000 </r>
       <r>    11.0200     0.0000    64.0000 </r>
       <r>    11.1225     0.4043    64.0415 </r>
       <r>    11.2251     1.8357    64.3757 </r>
       <r>    11.3276     2.5815    64.8272 </r>
       <r>    11.4302     3.7909    65.2637 </r>
       <r>    11.5327     7.7673    66.2340 </r>
       <r>    11.6353     6.8676    67.2355 </r>
       <r>    11.7378     2.4406    67.5003 </r>
       <r>    11.8403     1.2464    67.8153 </r>
       <r>    11.9429     6.1959    68.7604 </r>
       <r>    12.0454     2.9408    69.0828 </r>
       <r>    12.1480     1.8958    69.3507 </r>
       <r>    12.2505     4.3852    69.9809 </r>
       <r>    12.3531     3.7141    70.7559 </r>
       <r>    12.4556     4.6782    71.3235 </r>
       <r>    12.5582     4.9089    71.9096 </r>
       <r>    12.6607     3.0186    72.4033 </r>
       <r>    12.7633     5.1551    73.3411 </r>
       <r>    12.8658     3.7763    73.7622 </r>
       <r>    12.9683     3.9749    74.3451 </r>
       <r>    13.0709     0.6095    74.9063 </r>
       <r>    13.1734     8.3053    75.7579 </r>
       <r>    13.2760     7.3138    76.6875 </r>
       <r>    13.3785     3.8855    77.0859 </r>
       <r>    13.4811     4.9135    77.8476 </r>
       <r>    13.5836     4.2806    78.3452 </r>
       <r>    13.6862     5.7772    79.1237 </r>
       <r>    13.7887     2.7545    79.4075 </r>
       <r>    13.8913     6.5619    80.3604 </r>
       <r>    13.9938     7.8293    81.3966 </r>
       <r>    14.0963     5.7217    82.0242 </r>
       <r>    14.1989     4.3937    82.7006 </r>
       <r>    14.3014     8.7178    83.6127 </r>
       <r>    14.4040     7.6388    84.7833 </r>
       <r>    14.5065     3.6749    85.1893 </r>
       <r>    14.6091     5.5021    85.9393 </r>
       <r>    14.7116     2.1333    86.2500 </r>
       <r>    14.8142     3.7655    86.6362 </r>
       <r>    14.9167     5.3239    87.2334 </r>
       <r>    15.0193     3.5963    87.6188 </r>
       <r>    15.1218     3.4495    88.2600 </r>
       <r>    15.2243     2.9618    88.7412 </r>
       <r>    15.3269     2.1753    88.9732 </r>
       <r>    15.4294     5.4802    89.8120 </r>
       <r>    15.5320     3.2962    90.3380 </r>
       <r>    15.6345     4.9848    91.0737 </r>
       <r>    15.7371    11.9258    92.4104 </r>
       <r>    15.8396     2.2543    92.8562 </r>
       <r>    15.9422     7.2282    93.8662 </r>
       <r>    16.0447     5.4674    94.4357 </r>
       <r>    16.1472     4.2662    94.8750 </r>
       <r>    16.2498     2.4787    95.1292 </r>
       <r>    16.3523     5.3834    95.8020 </r>
       <r>    16.4549     0.0000    95.8125 </r>
       <r>    16.5574     1.8285    96.0000 </r>
       <r>    16.6600     0.0000    96.0000 </r>
       <r>    16.7625     0.0000    96.0000 </r>
       <r>    16.8651     0.0000    96.0000 </r>
       <r>    16.9676     0.0000    96.0000 </r>
       <r>    17.0702     0.0000    96.0000 </r>
       <r>    17.1727     0.0000    96.0000 </r>
       <r>    17.2752     0.0000    96.0000 </r>
       <r>    17.3778     0.0000    96.0000 </r>
       <r>    17.4803     0.0000    96.0000 </r>
       <r>    17.5829     0.0000    96.0000 </r>
       <r>    17.6854     0.0000    96.0000 </r>
       <r>    17.7880     0.0000    96.0000 </r>
       <r>    17.8905     0.0000    96.0000 </r>
      </set>
     </set>
    </array>
   </total>
  </dos>
 </calculation>
 <structure name="finalpos" >
  <crystal>
   <varray name="basis" >
    <v>       7.65951378       0.00000000       0.00000000 </v>
    <v>      -3.82975689       6.63333351       0.00000000 </v>
    <v>       0.00000000       0.00000000       2.92471165 </v>
   </varray>
   <i name="volume">    148.59906968 </i>
   <varray name="rec_basis" >
    <v>       0.13055659       0.07537688       0.00000000 </v>
    <v>       0.00000000       0.15075376       0.00000000 </v>
    <v>       0.00000000       0.00000000       0.34191405 </v>
   </varray>
  </crystal>
  <varray name="positions" >
   <v>       0.17495735       0.40610177       0.75000000 </v>
   <v>       0.59389823       0.76885558       0.75000000 </v>
   <v>       0.23114442       0.82504265       0.75000000 </v>
   <v>       0.82504265       0.59389823       0.25000000 </v>
   <v>       0.40610177       0.23114442       0.25000000 </v>
   <v>       0.76885558       0.17495735       0.25000000 </v>
   <v>       0.32997228       0.29920782       0.75000000 </v>
   <v>       0.70079218       0.03076445       0.75000000 </v>
   <v>       0.96923555       0.67002772       0.75000000 </v>
   <v>       0.33333333       0.66666667       0.74487129 </v>
   <v>       0.67002772       0.70079218       0.25000000 </v>
   <v>       0.29920782       0.96923555       0.25000000 </v>
   <v>       0.03076445       0.32997228       0.25000000 </v>
   <v>       0.66666667       0.33333333       0.25000000 </v>
  </varray>
 </structure>
</modeling>
