  28  28   0   0
  0.1067081E+02  0.7807997E-09  0.7807997E-09  0.5659078E-09  0.5000000E-15
  1.000000000000000E-004
  CAR 
 POSCAR (VASP)                           
     15.23118311    -12.90227407  301      6.25192136      1.00000000
    -12.902  0.0000E+00  0.0000E+00
    -12.808  0.0000E+00  0.0000E+00
    -12.715  0.0000E+00  0.0000E+00
    -12.621  0.0000E+00  0.0000E+00
    -12.527  0.0000E+00  0.0000E+00
    -12.433  0.0000E+00  0.0000E+00
    -12.340  0.0000E+00  0.0000E+00
    -12.246  0.0000E+00  0.0000E+00
    -12.152  0.0000E+00  0.0000E+00
    -12.058  0.0000E+00  0.0000E+00
    -11.964  0.0000E+00  0.0000E+00
    -11.871  0.0000E+00  0.0000E+00
    -11.777  0.0000E+00  0.0000E+00
    -11.683  0.0000E+00  0.0000E+00
    -11.589  0.6665E+00  0.6250E-01
    -11.496  0.1962E+01  0.2465E+00
    -11.402  0.0000E+00  0.4375E+00
    -11.308  0.1074E-09  0.4375E+00
    -11.214  0.4665E+01  0.8750E+00
    -11.120  0.5996E+01  0.1437E+01
    -11.027  0.1998E+01  0.1625E+01
    -10.933  0.1946E-01  0.1627E+01
    -10.839  0.5640E+01  0.2156E+01
    -10.745  0.6061E+01  0.2756E+01
    -10.652  0.1991E+01  0.3125E+01
    -10.558  0.1470E+01  0.3263E+01
    -10.464  0.9585E+01  0.4652E+01
    -10.370  0.4805E-01  0.4692E+01
    -10.276  0.2052E+01  0.4884E+01
    -10.183  0.5898E+01  0.5438E+01
    -10.089  0.1012E+02  0.6387E+01
     -9.995  0.1997E+01  0.6687E+01
     -9.901  0.9997E+01  0.7625E+01
     -9.808  0.7035E+00  0.7691E+01
     -9.714  0.8524E+01  0.8551E+01
     -9.620  0.5302E+01  0.9061E+01
     -9.526  0.1067E+02  0.1006E+02
     -9.432  0.8104E+01  0.1082E+02
     -9.339  0.6953E+01  0.1159E+02
     -9.245  0.7961E+01  0.1250E+02
     -9.151  0.3979E+01  0.1287E+02
     -9.057  0.1482E+02  0.1426E+02
     -8.964  0.1133E+02  0.1537E+02
     -8.870  0.3947E+01  0.1581E+02
     -8.776  0.7998E+01  0.1669E+02
     -8.682  0.8384E+01  0.1747E+02
     -8.588  0.9587E+01  0.1871E+02
     -8.495  0.1293E+02  0.2009E+02
     -8.401  0.7498E+01  0.2102E+02
     -8.307  0.9800E+01  0.2198E+02
     -8.213  0.1554E+02  0.2364E+02
     -8.120  0.1057E+02  0.2480E+02
     -8.026  0.2501E+02  0.2747E+02
     -7.932  0.2562E+02  0.3041E+02
     -7.838  0.1533E+02  0.3194E+02
     -7.744  0.6665E+00  0.3200E+02
     -7.651  0.0000E+00  0.3200E+02
     -7.557  0.0000E+00  0.3200E+02
     -7.463  0.0000E+00  0.3200E+02
     -7.369  0.0000E+00  0.3200E+02
     -7.276  0.0000E+00  0.3200E+02
     -7.182  0.0000E+00  0.3200E+02
     -7.088  0.0000E+00  0.3200E+02
     -6.994  0.0000E+00  0.3200E+02
     -6.900  0.0000E+00  0.3200E+02
     -6.807  0.0000E+00  0.3200E+02
     -6.713  0.0000E+00  0.3200E+02
     -6.619  0.0000E+00  0.3200E+02
     -6.525  0.0000E+00  0.3200E+02
     -6.432  0.0000E+00  0.3200E+02
     -6.338  0.0000E+00  0.3200E+02
     -6.244  0.0000E+00  0.3200E+02
     -6.150  0.0000E+00  0.3200E+02
     -6.056  0.0000E+00  0.3200E+02
     -5.963  0.0000E+00  0.3200E+02
     -5.869  0.0000E+00  0.3200E+02
     -5.775  0.0000E+00  0.3200E+02
     -5.681  0.0000E+00  0.3200E+02
     -5.588  0.0000E+00  0.3200E+02
     -5.494  0.0000E+00  0.3200E+02
     -5.400  0.0000E+00  0.3200E+02
     -5.306  0.0000E+00  0.3200E+02
     -5.212  0.0000E+00  0.3200E+02
     -5.119  0.0000E+00  0.3200E+02
     -5.025  0.0000E+00  0.3200E+02
     -4.931  0.0000E+00  0.3200E+02
     -4.837  0.0000E+00  0.3200E+02
     -4.744  0.0000E+00  0.3200E+02
     -4.650  0.0000E+00  0.3200E+02
     -4.556  0.0000E+00  0.3200E+02
     -4.462  0.0000E+00  0.3200E+02
     -4.368  0.0000E+00  0.3200E+02
     -4.275  0.0000E+00  0.3200E+02
     -4.181  0.0000E+00  0.3200E+02
     -4.087  0.0000E+00  0.3200E+02
     -3.993  0.0000E+00  0.3200E+02
     -3.900  0.0000E+00  0.3200E+02
     -3.806  0.0000E+00  0.3200E+02
     -3.712  0.0000E+00  0.3200E+02
     -3.618  0.0000E+00  0.3200E+02
     -3.524  0.0000E+00  0.3200E+02
     -3.431  0.0000E+00  0.3200E+02
     -3.337  0.0000E+00  0.3200E+02
     -3.243  0.0000E+00  0.3200E+02
     -3.149  0.0000E+00  0.3200E+02
     -3.056  0.0000E+00  0.3200E+02
     -2.962  0.1982E+01  0.3219E+02
     -2.868  0.7257E+01  0.3287E+02
     -2.774  0.8000E+01  0.3363E+02
     -2.680  0.1995E+01  0.3381E+02
     -2.587  0.3023E+01  0.3410E+02
     -2.493  0.6616E+01  0.3518E+02
     -2.399  0.8375E+01  0.3604E+02
     -2.305  0.9849E+01  0.3711E+02
     -2.212  0.6144E+01  0.3770E+02
     -2.118  0.5742E+01  0.3841E+02
     -2.024  0.1307E+02  0.3966E+02
     -1.930  0.1007E+02  0.4063E+02
     -1.836  0.4010E+01  0.4119E+02
     -1.743  0.7336E+01  0.4188E+02
     -1.649  0.8014E+01  0.4263E+02
     -1.555  0.1396E+02  0.4394E+02
     -1.461  0.6677E+00  0.4400E+02
     -1.368  0.4479E+01  0.4455E+02
     -1.274  0.5507E+01  0.4508E+02
     -1.180  0.1074E+02  0.4619E+02
     -1.086  0.2632E+01  0.4662E+02
     -0.992  0.8883E+01  0.4746E+02
     -0.899  0.4963E+01  0.4809E+02
     -0.805  0.1941E+01  0.4831E+02
     -0.711  0.9996E+01  0.4925E+02
     -0.617  0.8886E+01  0.5008E+02
     -0.524  0.0000E+00  0.5019E+02
     -0.430  0.5681E-01  0.5019E+02
     -0.336  0.8598E+01  0.5100E+02
     -0.242  0.1004E+02  0.5194E+02
     -0.148  0.1074E+02  0.5295E+02
     -0.055  0.1413E+02  0.5440E+02
      0.039  0.3922E+01  0.5512E+02
      0.133  0.9991E+01  0.5637E+02
      0.227  0.1230E+02  0.5772E+02
      0.320  0.1138E+02  0.5907E+02
      0.414  0.9974E+01  0.6019E+02
      0.508  0.7083E+00  0.6025E+02
      0.602  0.7089E+01  0.6116E+02
      0.696  0.6661E+01  0.6256E+02
      0.789  0.1584E+02  0.6405E+02
      0.883  0.1975E+01  0.6425E+02
      0.977  0.1218E+02  0.6539E+02
      1.071  0.1999E+01  0.6569E+02
      1.164  0.1248E+02  0.6686E+02
      1.258  0.1231E+02  0.6809E+02
      1.352  0.2634E+01  0.6900E+02
      1.446  0.6897E+01  0.6996E+02
      1.540  0.1457E+02  0.7168E+02
      1.633  0.9972E+01  0.7294E+02
      1.727  0.1279E+02  0.7451E+02
      1.821  0.1053E+02  0.7574E+02
      1.915  0.7337E+01  0.7656E+02
      2.008  0.2011E+02  0.7845E+02
      2.102  0.1363E+02  0.8028E+02
      2.196  0.7517E+01  0.8120E+02
      2.290  0.1704E+02  0.8304E+02
      2.384  0.1174E+02  0.8448E+02
      2.477  0.1618E+02  0.8620E+02
      2.571  0.1066E+02  0.8738E+02
      2.665  0.9731E+01  0.8854E+02
      2.759  0.1305E+02  0.8992E+02
      2.852  0.4665E+01  0.9062E+02
      2.946  0.1759E+02  0.9227E+02
      3.040  0.5157E+01  0.9292E+02
      3.134  0.1452E+02  0.9436E+02
      3.228  0.1077E+02  0.9582E+02
      3.321  0.1776E-13  0.9619E+02
      3.415  0.7317E+01  0.9687E+02
      3.509  0.6497E+01  0.9748E+02
      3.603  0.1174E+02  0.9879E+02
      3.696  0.7463E-10  0.9881E+02
      3.790  0.4361E+01  0.9922E+02
      3.884  0.6572E+01  0.9999E+02
      3.978  0.7509E+00  0.1006E+03
      4.072  0.9915E+01  0.1017E+03
      4.165  0.1066E+02  0.1031E+03
      4.259  0.8192E+01  0.1040E+03
      4.353  0.1209E+02  0.1053E+03
      4.447  0.7731E+01  0.1062E+03
      4.540  0.1027E+02  0.1073E+03
      4.634  0.7974E+01  0.1083E+03
      4.728  0.2103E+02  0.1103E+03
      4.822  0.1710E+02  0.1121E+03
      4.916  0.1115E+02  0.1136E+03
      5.009  0.7060E+01  0.1143E+03
      5.103  0.1486E+02  0.1158E+03
      5.197  0.1460E+02  0.1176E+03
      5.291  0.1502E+02  0.1198E+03
      5.384  0.1015E+02  0.1213E+03
      5.478  0.8427E+01  0.1225E+03
      5.572  0.9267E+01  0.1237E+03
      5.666  0.6218E+01  0.1243E+03
      5.760  0.1719E+02  0.1260E+03
      5.853  0.8660E+01  0.1269E+03
      5.947  0.0000E+00  0.1270E+03
      6.041  0.0000E+00  0.1270E+03
      6.135  0.7382E+01  0.1277E+03
      6.228  0.0000E+00  0.1280E+03
      6.322  0.0000E+00  0.1280E+03
      6.416  0.0000E+00  0.1280E+03
      6.510  0.0000E+00  0.1280E+03
      6.604  0.0000E+00  0.1280E+03
      6.697  0.0000E+00  0.1280E+03
      6.791  0.0000E+00  0.1280E+03
      6.885  0.0000E+00  0.1280E+03
      6.979  0.0000E+00  0.1280E+03
      7.072  0.0000E+00  0.1280E+03
      7.166  0.0000E+00  0.1280E+03
      7.260  0.0000E+00  0.1280E+03
      7.354  0.0000E+00  0.1280E+03
      7.448  0.0000E+00  0.1280E+03
      7.541  0.0000E+00  0.1280E+03
      7.635  0.0000E+00  0.1280E+03
      7.729  0.0000E+00  0.1280E+03
      7.823  0.0000E+00  0.1280E+03
      7.916  0.0000E+00  0.1280E+03
      8.010  0.0000E+00  0.1280E+03
      8.104  0.0000E+00  0.1280E+03
      8.198  0.0000E+00  0.1280E+03
      8.292  0.0000E+00  0.1280E+03
      8.385  0.0000E+00  0.1280E+03
      8.479  0.0000E+00  0.1280E+03
      8.573  0.0000E+00  0.1280E+03
      8.667  0.0000E+00  0.1280E+03
      8.760  0.0000E+00  0.1280E+03
      8.854  0.0000E+00  0.1280E+03
      8.948  0.0000E+00  0.1280E+03
      9.042  0.0000E+00  0.1280E+03
      9.136  0.0000E+00  0.1280E+03
      9.229  0.0000E+00  0.1280E+03
      9.323  0.0000E+00  0.1280E+03
      9.417  0.0000E+00  0.1280E+03
      9.511  0.0000E+00  0.1280E+03
      9.604  0.0000E+00  0.1280E+03
      9.698  0.0000E+00  0.1280E+03
      9.792  0.0000E+00  0.1280E+03
      9.886  0.0000E+00  0.1280E+03
      9.980  0.0000E+00  0.1280E+03
     10.073  0.0000E+00  0.1280E+03
     10.167  0.0000E+00  0.1280E+03
     10.261  0.0000E+00  0.1280E+03
     10.355  0.0000E+00  0.1280E+03
     10.448  0.0000E+00  0.1280E+03
     10.542  0.0000E+00  0.1280E+03
     10.636  0.0000E+00  0.1280E+03
     10.730  0.0000E+00  0.1280E+03
     10.824  0.0000E+00  0.1280E+03
     10.917  0.0000E+00  0.1280E+03
     11.011  0.5762E-01  0.1280E+03
     11.105  0.7537E-04  0.1281E+03
     11.199  0.5893E+01  0.1287E+03
     11.292  0.6692E+00  0.1288E+03
     11.386  0.5964E+01  0.1293E+03
     11.480  0.9617E+01  0.1302E+03
     11.574  0.1103E+02  0.1315E+03
     11.668  0.9143E+01  0.1326E+03
     11.761  0.1516E+02  0.1341E+03
     11.855  0.3997E+01  0.1346E+03
     11.949  0.1118E+02  0.1357E+03
     12.043  0.9027E+01  0.1372E+03
     12.137  0.1319E+02  0.1384E+03
     12.230  0.6492E+01  0.1399E+03
     12.324  0.1179E+02  0.1410E+03
     12.418  0.1431E+02  0.1429E+03
     12.512  0.1056E+02  0.1440E+03
     12.605  0.2037E+02  0.1460E+03
     12.699  0.4563E+01  0.1467E+03
     12.793  0.5996E+01  0.1475E+03
     12.887  0.9980E+01  0.1484E+03
     12.981  0.1284E+02  0.1499E+03
     13.074  0.1214E+02  0.1516E+03
     13.168  0.9803E+01  0.1530E+03
     13.262  0.1129E+02  0.1542E+03
     13.356  0.4870E+01  0.1551E+03
     13.449  0.1732E+02  0.1570E+03
     13.543  0.4199E+01  0.1576E+03
     13.637  0.8291E+01  0.1584E+03
     13.731  0.3238E+01  0.1591E+03
     13.825  0.1999E+01  0.1598E+03
     13.918  0.1325E-01  0.1598E+03
     14.012  0.2653E+01  0.1600E+03
     14.106  0.0000E+00  0.1600E+03
     14.200  0.0000E+00  0.1600E+03
     14.293  0.0000E+00  0.1600E+03
     14.387  0.0000E+00  0.1600E+03
     14.481  0.0000E+00  0.1600E+03
     14.575  0.0000E+00  0.1600E+03
     14.669  0.0000E+00  0.1600E+03
     14.762  0.0000E+00  0.1600E+03
     14.856  0.0000E+00  0.1600E+03
     14.950  0.0000E+00  0.1600E+03
     15.044  0.0000E+00  0.1600E+03
     15.137  0.0000E+00  0.1600E+03
     15.231  0.0000E+00  0.1600E+03
