   28   28    1    1
  0.1067081E+02  0.7807997E-09  0.7807997E-09  0.5659078E-09  0.5000000E-15
  1.000000000000000E-004
  CAR 
 POSCAR (VASP)                           
    128     10     80
 
  0.0000000E+00  0.0000000E+00  0.1250000E+00  0.3125000E-01
    1      -11.623481   1.000000
    2      -10.087093   1.000000
    3      -10.086969   1.000000
    4       -9.843166   1.000000
    5       -9.641362   1.000000
    6       -9.641074   1.000000
    7       -9.566941   1.000000
    8       -9.129028   1.000000
    9       -8.498538   1.000000
   10       -8.497648   1.000000
   11       -8.286312   1.000000
   12       -8.285586   1.000000
   13       -8.069828   1.000000
   14       -8.024532   1.000000
   15       -7.966576   1.000000
   16       -7.858060   1.000000
   17       -2.902113   1.000000
   18       -2.902017   1.000000
   19       -2.492705   1.000000
   20       -2.492653   1.000000
   21       -1.371562   1.000000
   22       -1.266003   1.000000
   23       -1.265911   1.000000
   24       -1.155381   1.000000
   25       -0.683407   1.000000
   26       -0.610555   1.000000
   27       -0.610422   1.000000
   28       -0.004613   1.000000
   29        0.255212   1.000000
   30        0.256256   1.000000
   31        0.610718   1.000000
   32        0.619127   1.000000
   33        0.983628   1.000000
   34        0.984221   1.000000
   35        1.206466   1.000000
   36        1.206734   1.000000
   37        1.644588   1.000000
   38        1.650013   1.000000
   39        2.236961   1.000000
   40        2.246187   1.000000
   41        2.419484   1.000000
   42        2.440214   1.000000
   43        2.440549   1.000000
   44        2.576322   1.000000
   45        2.644354   1.000000
   46        2.648844   1.000000
   47        3.169622   1.000000
   48        3.398428   1.000000
   49        3.398760   1.000000
   50        3.951076   1.000000
   51        4.163806   1.000000
   52        4.252219   1.000000
   53        4.253010   1.000000
   54        4.690998   1.000000
   55        4.704052   1.000000
   56        5.000469   1.000000
   57        5.007501   1.000000
   58        5.134350   1.000000
   59        5.140076   1.000000
   60        5.497287   1.000000
   61        5.497781   1.000000
   62        5.619835   1.000000
   63        5.862405   1.000000
   64        6.106335   1.000000
   65       11.022794   0.000000
   66       11.023847   0.000000
   67       11.271910   0.000000
   68       11.681394   0.000000
   69       11.681774   0.000000
   70       12.006113   0.000000
   71       12.006605   0.000000
   72       12.172333   0.000000
   73       12.333821   0.000000
   74       12.335193   0.000000
   75       12.859131   0.000000
   76       12.897391   0.000000
   77       13.125789   0.000000
   78       13.125824   0.000000
   79       13.396951   0.000000
   80       13.952390   0.000000
 
  0.2500000E+00  0.4163336E-16  0.1250000E+00  0.1875000E+00
    1      -11.495434   1.000000
    2      -10.540516   1.000000
    3      -10.262636   1.000000
    4       -9.935888   1.000000
    5       -9.584007   1.000000
    6       -9.377722   1.000000
    7       -9.115958   1.000000
    8       -9.020968   1.000000
    9       -8.617810   1.000000
   10       -8.546926   1.000000
   11       -8.318026   1.000000
   12       -8.271062   1.000000
   13       -8.097040   1.000000
   14       -8.021026   1.000000
   15       -7.986178   1.000000
   16       -7.863644   1.000000
   17       -2.882748   1.000000
   18       -2.797958   1.000000
   19       -2.475418   1.000000
   20       -2.363770   1.000000
   21       -1.986075   1.000000
   22       -1.695698   1.000000
   23       -1.630853   1.000000
   24       -1.055517   1.000000
   25       -0.738778   1.000000
   26       -0.226644   1.000000
   27       -0.133059   1.000000
   28        0.046519   1.000000
   29        0.178684   1.000000
   30        0.291686   1.000000
   31        0.614713   1.000000
   32        0.728612   1.000000
   33        0.930096   1.000000
   34        1.158778   1.000000
   35        1.259380   1.000000
   36        1.474131   1.000000
   37        1.598321   1.000000
   38        1.940557   1.000000
   39        2.022157   1.000000
   40        2.190190   1.000000
   41        2.296007   1.000000
   42        2.416154   1.000000
   43        2.493072   1.000000
   44        2.612106   1.000000
   45        2.744040   1.000000
   46        2.920216   1.000000
   47        3.068679   1.000000
   48        3.240941   1.000000
   49        3.390285   1.000000
   50        3.893554   1.000000
   51        4.085017   1.000000
   52        4.163989   1.000000
   53        4.447301   1.000000
   54        4.558889   1.000000
   55        4.659159   1.000000
   56        4.897659   1.000000
   57        4.984412   1.000000
   58        5.023351   1.000000
   59        5.202167   1.000000
   60        5.413415   1.000000
   61        5.487058   1.000000
   62        5.552478   1.000000
   63        5.820539   1.000000
   64        6.120948   1.000000
   65       11.134084   0.000000
   66       11.369083   0.000000
   67       11.557652   0.000000
   68       11.660464   0.000000
   69       11.758390   0.000000
   70       11.941384   0.000000
   71       12.032348   0.000000
   72       12.141669   0.000000
   73       12.348310   0.000000
   74       12.439072   0.000000
   75       12.607217   0.000000
   76       12.947314   0.000000
   77       13.084122   0.000000
   78       13.232415   0.000000
   79       13.353928   0.000000
   80       13.584052   0.000000
 
  0.5000000E+00  0.8326673E-16  0.1250000E+00  0.9375000E-01
    1      -11.180550   1.000000
    2      -11.048918   1.000000
    3      -10.356285   1.000000
    4      -10.016312   1.000000
    5       -9.392650   1.000000
    6       -9.095847   1.000000
    7       -9.066677   1.000000
    8       -8.913728   1.000000
    9       -8.741146   1.000000
   10       -8.495450   1.000000
   11       -8.425039   1.000000
   12       -8.243276   1.000000
   13       -8.152501   1.000000
   14       -8.024213   1.000000
   15       -7.966847   1.000000
   16       -7.878283   1.000000
   17       -2.978673   1.000000
   18       -2.584916   1.000000
   19       -2.550475   1.000000
   20       -2.273387   1.000000
   21       -2.055510   1.000000
   22       -1.980548   1.000000
   23       -1.583025   1.000000
   24       -1.576392   1.000000
   25       -0.769844   1.000000
   26       -0.297761   1.000000
   27       -0.169107   1.000000
   28        0.104344   1.000000
   29        0.187143   1.000000
   30        0.666904   1.000000
   31        0.720229   1.000000
   32        1.004573   1.000000
   33        1.143097   1.000000
   34        1.260651   1.000000
   35        1.451259   1.000000
   36        1.678454   1.000000
   37        1.729170   1.000000
   38        1.825297   1.000000
   39        1.935351   1.000000
   40        2.135690   1.000000
   41        2.232209   1.000000
   42        2.327524   1.000000
   43        2.392611   1.000000
   44        2.571591   1.000000
   45        2.693898   1.000000
   46        2.932198   1.000000
   47        2.951845   1.000000
   48        3.375557   1.000000
   49        3.742745   1.000000
   50        3.808569   1.000000
   51        3.842355   1.000000
   52        4.062114   1.000000
   53        4.369040   1.000000
   54        4.537888   1.000000
   55        4.700900   1.000000
   56        4.814578   1.000000
   57        4.906384   1.000000
   58        5.111095   1.000000
   59        5.206902   1.000000
   60        5.273963   1.000000
   61        5.411540   1.000000
   62        5.558058   1.000000
   63        5.739995   1.000000
   64        6.140497   1.000000
   65       11.187263   0.000000
   66       11.517493   0.000000
   67       11.624718   0.000000
   68       11.720486   0.000000
   69       11.958477   0.000000
   70       12.147849   0.000000
   71       12.206342   0.000000
   72       12.318770   0.000000
   73       12.409409   0.000000
   74       12.478650   0.000000
   75       12.530045   0.000000
   76       12.771025   0.000000
   77       12.901999   0.000000
   78       13.226046   0.000000
   79       13.275541   0.000000
   80       13.449258   0.000000
 
  0.2500000E+00  0.2500000E+00  0.1250000E+00  0.9375000E-01
    1      -11.249697   1.000000
    2      -10.782426   1.000000
    3      -10.733140   1.000000
    4       -9.553752   1.000000
    5       -9.495438   1.000000
    6       -9.313045   1.000000
    7       -8.975629   1.000000
    8       -8.969334   1.000000
    9       -8.837113   1.000000
   10       -8.558903   1.000000
   11       -8.363397   1.000000
   12       -8.240687   1.000000
   13       -8.154021   1.000000
   14       -7.943638   1.000000
   15       -7.938296   1.000000
   16       -7.872831   1.000000
   17       -2.927028   1.000000
   18       -2.833837   1.000000
   19       -2.584941   1.000000
   20       -2.162708   1.000000
   21       -1.941998   1.000000
   22       -1.920588   1.000000
   23       -1.707025   1.000000
   24       -1.335374   1.000000
   25       -1.101231   1.000000
   26       -0.273519   1.000000
   27       -0.083547   1.000000
   28       -0.059344   1.000000
   29        0.345217   1.000000
   30        0.649602   1.000000
   31        0.915587   1.000000
   32        0.946348   1.000000
   33        1.301559   1.000000
   34        1.362949   1.000000
   35        1.515747   1.000000
   36        1.548647   1.000000
   37        1.749872   1.000000
   38        1.762550   1.000000
   39        1.895901   1.000000
   40        2.036651   1.000000
   41        2.145640   1.000000
   42        2.260567   1.000000
   43        2.352142   1.000000
   44        2.565481   1.000000
   45        2.758616   1.000000
   46        2.906538   1.000000
   47        3.087209   1.000000
   48        3.192267   1.000000
   49        3.581253   1.000000
   50        3.868663   1.000000
   51        3.995162   1.000000
   52        4.258251   1.000000
   53        4.435505   1.000000
   54        4.514108   1.000000
   55        4.614990   1.000000
   56        4.736672   1.000000
   57        4.900760   1.000000
   58        5.097562   1.000000
   59        5.236559   1.000000
   60        5.289502   1.000000
   61        5.322096   1.000000
   62        5.602502   1.000000
   63        5.701574   1.000000
   64        6.132350   1.000000
   65       11.421275   0.000000
   66       11.586999   0.000000
   67       11.659725   0.000000
   68       11.875451   0.000000
   69       11.960210   0.000000
   70       12.089141   0.000000
   71       12.114995   0.000000
   72       12.254720   0.000000
   73       12.296453   0.000000
   74       12.505202   0.000000
   75       12.528708   0.000000
   76       12.896779   0.000000
   77       12.916116   0.000000
   78       12.981407   0.000000
   79       13.102370   0.000000
   80       13.446177   0.000000
 
 -0.2500000E+00  0.5000000E+00  0.1250000E+00  0.9375000E-01
    1      -11.248871   1.000000
    2      -10.779859   1.000000
    3      -10.726665   1.000000
    4       -9.575656   1.000000
    5       -9.559100   1.000000
    6       -9.331117   1.000000
    7       -9.114760   1.000000
    8       -8.840302   1.000000
    9       -8.583019   1.000000
   10       -8.480877   1.000000
   11       -8.372881   1.000000
   12       -8.264548   1.000000
   13       -8.173127   1.000000
   14       -8.040789   1.000000
   15       -8.010342   1.000000
   16       -7.905402   1.000000
   17       -2.825947   1.000000
   18       -2.754011   1.000000
   19       -2.525723   1.000000
   20       -2.393399   1.000000
   21       -2.070568   1.000000
   22       -1.819127   1.000000
   23       -1.726399   1.000000
   24       -1.220718   1.000000
   25       -0.983755   1.000000
   26       -0.189618   1.000000
   27       -0.014345   1.000000
   28        0.123145   1.000000
   29        0.145068   1.000000
   30        0.380244   1.000000
   31        0.601151   1.000000
   32        0.867241   1.000000
   33        0.950901   1.000000
   34        1.369175   1.000000
   35        1.431387   1.000000
   36        1.639375   1.000000
   37        1.879656   1.000000
   38        1.932798   1.000000
   39        2.061367   1.000000
   40        2.103772   1.000000
   41        2.246441   1.000000
   42        2.281653   1.000000
   43        2.488164   1.000000
   44        2.753341   1.000000
   45        2.793010   1.000000
   46        2.924124   1.000000
   47        2.974672   1.000000
   48        3.187811   1.000000
   49        3.557514   1.000000
   50        3.796819   1.000000
   51        3.999647   1.000000
   52        4.131486   1.000000
   53        4.328618   1.000000
   54        4.333916   1.000000
   55        4.682382   1.000000
   56        4.828028   1.000000
   57        4.911821   1.000000
   58        5.140383   1.000000
   59        5.289509   1.000000
   60        5.386377   1.000000
   61        5.391104   1.000000
   62        5.528431   1.000000
   63        5.725115   1.000000
   64        6.133374   1.000000
   65       11.312867   0.000000
   66       11.451084   0.000000
   67       11.688714   0.000000
   68       11.750618   0.000000
   69       11.938283   0.000000
   70       11.939234   0.000000
   71       12.098852   0.000000
   72       12.256020   0.000000
   73       12.320587   0.000000
   74       12.386092   0.000000
   75       12.506038   0.000000
   76       12.857036   0.000000
   77       12.987181   0.000000
   78       13.068358   0.000000
   79       13.272570   0.000000
   80       13.388083   0.000000
 
  0.0000000E+00  0.0000000E+00  0.3750000E+00  0.3125000E-01
    1      -11.263585   1.000000
    2      -10.607258   1.000000
    3       -9.794328   1.000000
    4       -9.793763   1.000000
    5       -9.509905   1.000000
    6       -9.508658   1.000000
    7       -9.366334   1.000000
    8       -9.109242   1.000000
    9       -8.867436   1.000000
   10       -8.865310   1.000000
   11       -8.662508   1.000000
   12       -8.661066   1.000000
   13       -8.083039   1.000000
   14       -8.040357   1.000000
   15       -7.879738   1.000000
   16       -7.800402   1.000000
   17       -2.051617   1.000000
   18       -2.051063   1.000000
   19       -1.804350   1.000000
   20       -1.804149   1.000000
   21       -1.309223   1.000000
   22       -1.309168   1.000000
   23       -1.205484   1.000000
   24       -1.023245   1.000000
   25       -0.931355   1.000000
   26       -0.930669   1.000000
   27       -0.351631   1.000000
   28       -0.026606   1.000000
   29        0.202542   1.000000
   30        0.206763   1.000000
   31        0.511238   1.000000
   32        0.517375   1.000000
   33        0.568876   1.000000
   34        1.114224   1.000000
   35        1.114716   1.000000
   36        1.427580   1.000000
   37        1.557160   1.000000
   38        1.558460   1.000000
   39        1.703632   1.000000
   40        1.864648   1.000000
   41        1.872503   1.000000
   42        2.219785   1.000000
   43        2.227077   1.000000
   44        2.582306   1.000000
   45        2.823575   1.000000
   46        2.922730   1.000000
   47        2.924884   1.000000
   48        3.139404   1.000000
   49        3.139506   1.000000
   50        3.451454   1.000000
   51        4.330513   1.000000
   52        4.331632   1.000000
   53        4.331836   1.000000
   54        4.475556   1.000000
   55        4.667153   1.000000
   56        4.670295   1.000000
   57        4.733275   1.000000
   58        5.241714   1.000000
   59        5.242647   1.000000
   60        5.270842   1.000000
   61        5.353550   1.000000
   62        5.354127   1.000000
   63        5.742498   1.000000
   64        5.844574   1.000000
   65       11.710103   0.000000
   66       11.711628   0.000000
   67       12.290757   0.000000
   68       12.396345   0.000000
   69       12.397574   0.000000
   70       12.580394   0.000000
   71       12.580452   0.000000
   72       12.680878   0.000000
   73       12.871788   0.000000
   74       12.873059   0.000000
   75       12.936609   0.000000
   76       13.344656   0.000000
   77       13.345784   0.000000
   78       13.397975   0.000000
   79       13.546205   0.000000
   80       13.642677   0.000000
 
  0.2500000E+00  0.4163336E-16  0.3750000E+00  0.1875000E+00
    1      -11.143759   1.000000
    2      -10.547730   1.000000
    3      -10.156070   1.000000
    4       -9.937579   1.000000
    5       -9.766810   1.000000
    6       -9.449432   1.000000
    7       -9.261949   1.000000
    8       -9.067242   1.000000
    9       -8.817922   1.000000
   10       -8.679771   1.000000
   11       -8.504152   1.000000
   12       -8.409510   1.000000
   13       -8.072765   1.000000
   14       -8.051326   1.000000
   15       -7.962716   1.000000
   16       -7.866857   1.000000
   17       -2.327568   1.000000
   18       -2.245051   1.000000
   19       -2.034737   1.000000
   20       -1.858090   1.000000
   21       -1.605664   1.000000
   22       -1.434179   1.000000
   23       -1.215263   1.000000
   24       -0.908051   1.000000
   25       -0.662802   1.000000
   26       -0.414272   1.000000
   27       -0.261395   1.000000
   28       -0.049669   1.000000
   29        0.108225   1.000000
   30        0.231188   1.000000
   31        0.396341   1.000000
   32        0.555929   1.000000
   33        0.762388   1.000000
   34        1.118342   1.000000
   35        1.260491   1.000000
   36        1.485335   1.000000
   37        1.537747   1.000000
   38        1.693774   1.000000
   39        1.774807   1.000000
   40        1.949355   1.000000
   41        2.037114   1.000000
   42        2.079701   1.000000
   43        2.349402   1.000000
   44        2.426389   1.000000
   45        2.680821   1.000000
   46        2.932943   1.000000
   47        3.098311   1.000000
   48        3.144783   1.000000
   49        3.207238   1.000000
   50        3.489577   1.000000
   51        4.033490   1.000000
   52        4.224356   1.000000
   53        4.313581   1.000000
   54        4.496036   1.000000
   55        4.664496   1.000000
   56        4.808059   1.000000
   57        4.820271   1.000000
   58        5.079440   1.000000
   59        5.129737   1.000000
   60        5.198753   1.000000
   61        5.296796   1.000000
   62        5.379347   1.000000
   63        5.684562   1.000000
   64        5.818666   1.000000
   65       11.568980   0.000000
   66       11.694035   0.000000
   67       12.070050   0.000000
   68       12.149022   0.000000
   69       12.337560   0.000000
   70       12.411431   0.000000
   71       12.533914   0.000000
   72       12.687129   0.000000
   73       12.760396   0.000000
   74       12.985487   0.000000
   75       13.049547   0.000000
   76       13.137084   0.000000
   77       13.395440   0.000000
   78       13.420641   0.000000
   79       13.649366   0.000000
   80       13.737918   0.000000
 
  0.5000000E+00  0.8326673E-16  0.3750000E+00  0.9375000E-01
    1      -10.845918   1.000000
    2      -10.760841   1.000000
    3      -10.219450   1.000000
    4      -10.108149   1.000000
    5       -9.963944   1.000000
    6       -9.430850   1.000000
    7       -9.318509   1.000000
    8       -9.034331   1.000000
    9       -8.681659   1.000000
   10       -8.496904   1.000000
   11       -8.281900   1.000000
   12       -8.204535   1.000000
   13       -8.109976   1.000000
   14       -8.092488   1.000000
   15       -8.024818   1.000000
   16       -8.000873   1.000000
   17       -2.589407   1.000000
   18       -2.315657   1.000000
   19       -2.201280   1.000000
   20       -2.068798   1.000000
   21       -1.765487   1.000000
   22       -1.347229   1.000000
   23       -1.167572   1.000000
   24       -0.734965   1.000000
   25       -0.679205   1.000000
   26       -0.374325   1.000000
   27       -0.145738   1.000000
   28       -0.129591   1.000000
   29        0.147281   1.000000
   30        0.289804   1.000000
   31        0.513577   1.000000
   32        0.654029   1.000000
   33        0.961208   1.000000
   34        1.194414   1.000000
   35        1.203144   1.000000
   36        1.437791   1.000000
   37        1.585956   1.000000
   38        1.781874   1.000000
   39        1.890474   1.000000
   40        1.993123   1.000000
   41        2.103987   1.000000
   42        2.202777   1.000000
   43        2.338792   1.000000
   44        2.416213   1.000000
   45        2.669694   1.000000
   46        2.789408   1.000000
   47        2.893864   1.000000
   48        3.177912   1.000000
   49        3.501336   1.000000
   50        3.594384   1.000000
   51        3.892014   1.000000
   52        4.144849   1.000000
   53        4.197779   1.000000
   54        4.573600   1.000000
   55        4.661072   1.000000
   56        4.690261   1.000000
   57        4.782343   1.000000
   58        4.994240   1.000000
   59        5.037833   1.000000
   60        5.199897   1.000000
   61        5.249247   1.000000
   62        5.411145   1.000000
   63        5.660699   1.000000
   64        5.746378   1.000000
   65       11.426087   0.000000
   66       11.492553   0.000000
   67       11.797868   0.000000
   68       11.983093   0.000000
   69       12.251009   0.000000
   70       12.508544   0.000000
   71       12.552005   0.000000
   72       12.711644   0.000000
   73       12.875080   0.000000
   74       13.023829   0.000000
   75       13.082910   0.000000
   76       13.110288   0.000000
   77       13.258081   0.000000
   78       13.465099   0.000000
   79       13.664358   0.000000
   80       13.734240   0.000000
 
  0.2500000E+00  0.2500000E+00  0.3750000E+00  0.9375000E-01
    1      -10.915627   1.000000
    2      -10.552594   1.000000
    3      -10.477950   1.000000
    4      -10.095644   1.000000
    5       -9.724480   1.000000
    6       -9.636640   1.000000
    7       -9.167579   1.000000
    8       -8.973421   1.000000
    9       -8.734865   1.000000
   10       -8.729758   1.000000
   11       -8.294163   1.000000
   12       -8.146898   1.000000
   13       -8.113608   1.000000
   14       -8.080702   1.000000
   15       -7.982160   1.000000
   16       -7.936906   1.000000
   17       -2.575443   1.000000
   18       -2.505549   1.000000
   19       -2.126170   1.000000
   20       -1.952752   1.000000
   21       -1.631917   1.000000
   22       -1.458299   1.000000
   23       -1.231473   1.000000
   24       -1.030704   1.000000
   25       -0.760179   1.000000
   26       -0.285170   1.000000
   27       -0.170029   1.000000
   28        0.271573   1.000000
   29        0.309222   1.000000
   30        0.354323   1.000000
   31        0.603588   1.000000
   32        0.608450   1.000000
   33        0.779288   1.000000
   34        1.198057   1.000000
   35        1.356803   1.000000
   36        1.457034   1.000000
   37        1.524659   1.000000
   38        1.690272   1.000000
   39        1.699374   1.000000
   40        1.980096   1.000000
   41        2.019068   1.000000
   42        2.279143   1.000000
   43        2.378337   1.000000
   44        2.416652   1.000000
   45        2.623336   1.000000
   46        2.654411   1.000000
   47        3.035609   1.000000
   48        3.063511   1.000000
   49        3.531484   1.000000
   50        3.585524   1.000000
   51        3.990685   1.000000
   52        4.149941   1.000000
   53        4.365269   1.000000
   54        4.418490   1.000000
   55        4.693490   1.000000
   56        4.754911   1.000000
   57        4.810995   1.000000
   58        4.888205   1.000000
   59        5.110708   1.000000
   60        5.183336   1.000000
   61        5.239832   1.000000
   62        5.371480   1.000000
   63        5.609310   1.000000
   64        5.717936   1.000000
   65       11.519571   0.000000
   66       11.599877   0.000000
   67       11.955089   0.000000
   68       12.026197   0.000000
   69       12.198479   0.000000
   70       12.404567   0.000000
   71       12.534704   0.000000
   72       12.598614   0.000000
   73       12.927546   0.000000
   74       13.050547   0.000000
   75       13.173136   0.000000
   76       13.210204   0.000000
   77       13.433984   0.000000
   78       13.443090   0.000000
   79       13.563332   0.000000
   80       13.599998   0.000000
 
 -0.2500000E+00  0.5000000E+00  0.3750000E+00  0.9375000E-01
    1      -10.913116   1.000000
    2      -10.538952   1.000000
    3      -10.470983   1.000000
    4      -10.102547   1.000000
    5       -9.773411   1.000000
    6       -9.695254   1.000000
    7       -9.193343   1.000000
    8       -8.874891   1.000000
    9       -8.636973   1.000000
   10       -8.597948   1.000000
   11       -8.323893   1.000000
   12       -8.234626   1.000000
   13       -8.140905   1.000000
   14       -8.088667   1.000000
   15       -8.011652   1.000000
   16       -7.987432   1.000000
   17       -2.475566   1.000000
   18       -2.454845   1.000000
   19       -2.134103   1.000000
   20       -2.087989   1.000000
   21       -1.812882   1.000000
   22       -1.245466   1.000000
   23       -1.038768   1.000000
   24       -0.818287   1.000000
   25       -0.642620   1.000000
   26       -0.402706   1.000000
   27       -0.133885   1.000000
   28       -0.063574   1.000000
   29        0.108438   1.000000
   30        0.147652   1.000000
   31        0.330359   1.000000
   32        0.719607   1.000000
   33        0.747022   1.000000
   34        1.129785   1.000000
   35        1.258141   1.000000
   36        1.574151   1.000000
   37        1.642179   1.000000
   38        1.729924   1.000000
   39        1.976103   1.000000
   40        1.996137   1.000000
   41        2.220464   1.000000
   42        2.247067   1.000000
   43        2.414041   1.000000
   44        2.498713   1.000000
   45        2.510008   1.000000
   46        2.762127   1.000000
   47        3.032828   1.000000
   48        3.111173   1.000000
   49        3.519694   1.000000
   50        3.546450   1.000000
   51        3.744174   1.000000
   52        4.143336   1.000000
   53        4.288297   1.000000
   54        4.465834   1.000000
   55        4.547669   1.000000
   56        4.788061   1.000000
   57        4.822528   1.000000
   58        5.042926   1.000000
   59        5.104495   1.000000
   60        5.179438   1.000000
   61        5.245711   1.000000
   62        5.387345   1.000000
   63        5.684852   1.000000
   64        5.763061   1.000000
   65       11.468272   0.000000
   66       11.473607   0.000000
   67       11.835842   0.000000
   68       11.945353   0.000000
   69       12.108239   0.000000
   70       12.220711   0.000000
   71       12.584300   0.000000
   72       12.595831   0.000000
   73       12.847559   0.000000
   74       12.875677   0.000000
   75       13.007436   0.000000
   76       13.254478   0.000000
   77       13.353322   0.000000
   78       13.519529   0.000000
   79       13.771577   0.000000
   80       13.935803   0.000000
