 running on   16 total cores
 distrk:  each k-point on   16 cores,    1 groups
 distr:  one band on    1 cores,   16 groups
 using from now: INCAR     
 vasp.5.4.1 05Feb16 (build Mar 26 2016 11:58:25) complex                        
  
 POSCAR found type information on POSCAR  Si N 
 POSCAR found :  2 types and      28 ions
 scaLAPACK will be used

 ----------------------------------------------------------------------------- 
|                                                                             |
|           W    W    AA    RRRRR   N    N  II  N    N   GGGG   !!!           |
|           W    W   A  A   R    R  NN   N  II  NN   N  G    G  !!!           |
|           W    W  A    A  R    R  N N  N  II  N N  N  G       !!!           |
|           W WW W  AAAAAA  RRRRR   N  N N  II  N  N N  G  GGG   !            |
|           WW  WW  A    A  R   R   N   NN  II  N   NN  G    G                |
|           W    W  A    A  R    R  N    N  II  N    N   GGGG   !!!           |
|                                                                             |
|      For optimal performance we recommend to set                            |
|        NCORE= 4 - approx SQRT( number of cores)                             |
|      NCORE specifies how many cores store one orbital (NPAR=cpu/NCORE).     |
|      This setting can  greatly improve the performance of VASP for DFT.     |
|      The default, NPAR=number of cores might be grossly inefficient         |
|      on modern multi-core architectures or massively parallel machines.     |
|      Do your own testing !!!!                                               |
|      Unfortunately you need to use the default for GW and RPA calculations. |
|      (for HF NCORE is supported but not extensively tested yet)             |
|                                                                             |
 ----------------------------------------------------------------------------- 


 ----------------------------------------------------------------------------- 
|                                                                             |
|  ADVICE TO THIS USER RUNNING 'VASP/VAMP'   (HEAR YOUR MASTER'S VOICE ...):  |
|                                                                             |
|      You have a (more or less) 'large supercell' and for larger cells       |
|      it might be more efficient to use real space projection operators      |
|      So try LREAL= Auto  in the INCAR   file.                               |
|      Mind: If you want to do a very accurate calculations keep the          |
|      reciprocal projection scheme          (i.e. LREAL=.FALSE.)             |
|                                                                             |
 ----------------------------------------------------------------------------- 

 LDA part: xc-table for Pade appr. of Perdew
 POSCAR, INCAR and KPOINTS ok, starting setup
 FFT: planning ...
 WAVECAR not read
 entering main loop
       N       E                     dE             d eps       ncg     rms          rms(c)
DAV:   1     0.591553935695E+03    0.59155E+03   -0.62090E+04  1600   0.143E+03
DAV:   2    -0.215079135578E+03   -0.80663E+03   -0.78198E+03  2080   0.293E+02
DAV:   3    -0.260591266763E+03   -0.45512E+02   -0.45260E+02  1920   0.776E+01
DAV:   4    -0.261489438700E+03   -0.89817E+00   -0.89408E+00  1968   0.113E+01
DAV:   5    -0.261516592270E+03   -0.27154E-01   -0.27136E-01  1856   0.189E+00    0.319E+01
DAV:   6    -0.229246199588E+03    0.32270E+02   -0.13342E+02  1920   0.340E+01    0.876E+00
DAV:   7    -0.229158584366E+03    0.87615E-01   -0.55963E+00  2080   0.738E+00    0.557E+00
DAV:   8    -0.229102885320E+03    0.55699E-01   -0.63050E-01  1920   0.301E+00    0.968E-01
DAV:   9    -0.229080259322E+03    0.22626E-01   -0.10681E-01  1920   0.114E+00    0.299E-01
DAV:  10    -0.229082443647E+03   -0.21843E-02   -0.20652E-02  1936   0.425E-01    0.139E-01
DAV:  11    -0.229083276415E+03   -0.83277E-03   -0.20415E-03  1936   0.169E-01    0.299E-02
DAV:  12    -0.229083372780E+03   -0.96366E-04   -0.15316E-04  1920   0.540E-02    0.225E-02
DAV:  13    -0.229083403623E+03   -0.30843E-04   -0.59877E-05  1920   0.276E-02    0.101E-02
DAV:  14    -0.229083407206E+03   -0.35827E-05   -0.13430E-05  2000   0.136E-02    0.259E-03
DAV:  15    -0.229083408417E+03   -0.12111E-05   -0.23950E-06  1920   0.581E-03    0.160E-03
DAV:  16    -0.229083409150E+03   -0.73304E-06   -0.30787E-07  1920   0.205E-03    0.115E-03
DAV:  17    -0.229083409243E+03   -0.93050E-07   -0.13653E-07  1920   0.129E-03    0.377E-04
DAV:  18    -0.229083409227E+03    0.16370E-07   -0.15579E-08  1392   0.534E-04    0.329E-04
DAV:  19    -0.229083409211E+03    0.16438E-07   -0.68377E-09  1280   0.337E-04    0.271E-04
DAV:  20    -0.229083409206E+03    0.43729E-08   -0.31486E-09  1280   0.224E-04
   1 F= -.22908341E+03 E0= -.22908341E+03  d E =-.903127E-12

 ----------------------------------------------------------------------------- 
|                                                                             |
|           W    W    AA    RRRRR   N    N  II  N    N   GGGG   !!!           |
|           W    W   A  A   R    R  NN   N  II  NN   N  G    G  !!!           |
|           W    W  A    A  R    R  N N  N  II  N N  N  G       !!!           |
|           W WW W  AAAAAA  RRRRR   N  N N  II  N  N N  G  GGG   !            |
|           WW  WW  A    A  R   R   N   NN  II  N   NN  G    G                |
|           W    W  A    A  R    R  N    N  II  N    N   GGGG   !!!           |
|                                                                             |
|      Your timestep is larger than 0.1 Angst.                                |
|      For finite differences this really does not make sense. I will         |
|      reset POTIM to 0.015. I recommend to use 0.01 to 0.02 for finite       |
|      differences.                                                           |
|                                                                             |
 ----------------------------------------------------------------------------- 

 Found    16 degrees of freedom:
 Adding 6 more for cell shape distortion
 Finite differences POTIM= 0.01500 DOF=  22
 bond charge predicted
       N       E                     dE             d eps       ncg     rms          rms(c)
DAV:   1    -0.229098714897E+03   -0.15306E-01   -0.61264E+00  3760   0.994E+00    0.206E+00
DAV:   2    -0.229005010494E+03    0.93704E-01   -0.30149E-01  3840   0.225E+00    0.995E-01
DAV:   3    -0.228983715374E+03    0.21295E-01   -0.14250E-01  3840   0.142E+00    0.399E-01
DAV:   4    -0.228980819901E+03    0.28955E-02   -0.21874E-02  3840   0.623E-01    0.221E-01
DAV:   5    -0.228979874102E+03    0.94580E-03   -0.79279E-03  4160   0.316E-01    0.648E-02
DAV:   6    -0.228979828691E+03    0.45411E-04   -0.83549E-04  3840   0.118E-01    0.468E-02
DAV:   7    -0.228979792553E+03    0.36138E-04   -0.46537E-04  3840   0.826E-02    0.165E-02
DAV:   8    -0.228979789747E+03    0.28055E-05   -0.52479E-05  3840   0.362E-02    0.807E-03
DAV:   9    -0.228979789629E+03    0.11844E-06   -0.15065E-05  3968   0.139E-02    0.196E-03
DAV:  10    -0.228979789897E+03   -0.26823E-06   -0.11902E-06  3856   0.474E-03    0.157E-03
DAV:  11    -0.228979789737E+03    0.16037E-06   -0.36713E-07  3840   0.236E-03    0.565E-04
DAV:  12    -0.228979789785E+03   -0.48136E-07   -0.61086E-08  3840   0.106E-03    0.368E-04
DAV:  13    -0.228979789801E+03   -0.15780E-07   -0.13164E-08  2560   0.540E-04    0.279E-04
DAV:  14    -0.228979789820E+03   -0.19692E-07   -0.12193E-08  2560   0.467E-04    0.292E-04
DAV:  15    -0.228979789827E+03   -0.63264E-08   -0.27656E-09  2560   0.308E-04
   2 F= -.22897979E+03 E0= -.22897979E+03  d E =-.168617E-11
 Finite differences progress:
  Degree of freedom:   1/ 22
  Displacement:        1/  2
  Total:               1/ 44
 bond charge predicted
       N       E                     dE             d eps       ncg     rms          rms(c)
DAV:   1    -0.229451534241E+03   -0.47174E+00   -0.20835E+01  3760   0.186E+01    0.418E+00
DAV:   2    -0.229069799458E+03    0.38173E+00   -0.11417E+00  3824   0.437E+00    0.199E+00
DAV:   3    -0.228988116678E+03    0.81683E-01   -0.51409E-01  3840   0.268E+00    0.773E-01
DAV:   4    -0.228976795417E+03    0.11321E-01   -0.84709E-02  3840   0.122E+00    0.399E-01
DAV:   5    -0.228973893865E+03    0.29016E-02   -0.22620E-02  4160   0.544E-01    0.108E-01
DAV:   6    -0.228973808774E+03    0.85090E-04   -0.25801E-03  3840   0.199E-01    0.802E-02
DAV:   7    -0.228973741386E+03    0.67388E-04   -0.16250E-03  3840   0.152E-01    0.392E-02
DAV:   8    -0.228973722822E+03    0.18564E-04   -0.21669E-04  4000   0.747E-02    0.142E-02
DAV:   9    -0.228973727546E+03   -0.47242E-05   -0.71552E-05  3920   0.305E-02    0.482E-03
DAV:  10    -0.228973727649E+03   -0.10345E-06   -0.38055E-06  3920   0.936E-03    0.248E-03
DAV:  11    -0.228973727813E+03   -0.16391E-06   -0.70106E-07  3840   0.336E-03    0.114E-03
DAV:  12    -0.228973727800E+03    0.13308E-07   -0.38564E-07  4064   0.244E-03    0.512E-04
DAV:  13    -0.228973727775E+03    0.24618E-07   -0.50835E-08  3664   0.107E-03    0.425E-04
DAV:  14    -0.228973727758E+03    0.17384E-07   -0.35466E-08  3296   0.731E-04    0.355E-04
DAV:  15    -0.228973727737E+03    0.20724E-07   -0.85297E-09  2560   0.454E-04    0.265E-04
DAV:  16    -0.228973727734E+03    0.36898E-08   -0.43334E-09  2560   0.264E-04
   3 F= -.22897373E+03 E0= -.22897373E+03  d E =-.353454E-15
 Finite differences progress:
  Degree of freedom:   1/ 22
  Displacement:        2/  2
  Total:               2/ 44
 bond charge predicted
       N       E                     dE             d eps       ncg     rms          rms(c)
DAV:   1    -0.229291194500E+03   -0.31747E+00   -0.14958E+01  3760   0.153E+01    0.348E+00
DAV:   2    -0.229018667051E+03    0.27253E+00   -0.88554E-01  3824   0.353E+00    0.133E+00
DAV:   3    -0.228987638470E+03    0.31029E-01   -0.23647E-01  3840   0.166E+00    0.497E-01
DAV:   4    -0.228981782179E+03    0.58563E-02   -0.37483E-02  3840   0.730E-01    0.269E-01
DAV:   5    -0.228979819614E+03    0.19626E-02   -0.70688E-03  3840   0.306E-01    0.608E-02
DAV:   6    -0.228979808330E+03    0.11283E-04   -0.10271E-03  3840   0.117E-01    0.475E-02
DAV:   7    -0.228979775488E+03    0.32842E-04   -0.49050E-04  4112   0.821E-02    0.226E-02
DAV:   8    -0.228979764441E+03    0.11047E-04   -0.75826E-05  4416   0.428E-02    0.901E-03
DAV:   9    -0.228979764767E+03   -0.32670E-06   -0.18970E-05  3856   0.152E-02    0.231E-03
DAV:  10    -0.228979765308E+03   -0.54091E-06   -0.12001E-06  4048   0.494E-03    0.240E-03
DAV:  11    -0.228979765256E+03    0.52189E-07   -0.68271E-07  3840   0.292E-03    0.606E-04
DAV:  12    -0.228979765355E+03   -0.99139E-07   -0.21749E-07  3920   0.154E-03    0.620E-04
DAV:  13    -0.228979765407E+03   -0.51441E-07   -0.24818E-08  2880   0.588E-04    0.363E-04
DAV:  14    -0.228979765436E+03   -0.28779E-07   -0.99419E-09  2560   0.437E-04    0.264E-04
DAV:  15    -0.228979765442E+03   -0.65402E-08   -0.50458E-09  2560   0.279E-04
   4 F= -.22897977E+03 E0= -.22897977E+03  d E =-.183871E-17
 Finite differences progress:
  Degree of freedom:   2/ 22
  Displacement:        1/  2
  Total:               3/ 44
 bond charge predicted
       N       E                     dE             d eps       ncg     rms          rms(c)
DAV:   1    -0.229451067701E+03   -0.47130E+00   -0.20831E+01  3728   0.186E+01    0.418E+00
DAV:   2    -0.229069591625E+03    0.38148E+00   -0.11350E+00  3840   0.435E+00    0.199E+00
DAV:   3    -0.228988086126E+03    0.81505E-01   -0.51174E-01  3840   0.267E+00    0.773E-01
DAV:   4    -0.228976795690E+03    0.11290E-01   -0.85564E-02  3840   0.122E+00    0.400E-01
DAV:   5    -0.228973897203E+03    0.28985E-02   -0.21848E-02  4160   0.535E-01    0.108E-01
DAV:   6    -0.228973848099E+03    0.49104E-04   -0.32370E-03  3840   0.205E-01    0.867E-02
DAV:   7    -0.228973729220E+03    0.11888E-03   -0.15340E-03  3840   0.155E-01    0.334E-02
DAV:   8    -0.228973724139E+03    0.50806E-05   -0.19627E-04  3840   0.729E-02    0.165E-02
DAV:   9    -0.228973726519E+03   -0.23793E-05   -0.71703E-05  4032   0.297E-02    0.454E-03
DAV:  10    -0.228973726973E+03   -0.45409E-06   -0.63293E-06  4128   0.126E-02    0.323E-03
DAV:  11    -0.228973726993E+03   -0.20215E-07   -0.17160E-06  4064   0.642E-03    0.118E-03
DAV:  12    -0.228973727033E+03   -0.39850E-07   -0.56502E-07  3840   0.282E-03    0.943E-04
DAV:  13    -0.228973726981E+03    0.51499E-07   -0.12016E-07  4048   0.147E-03    0.399E-04
DAV:  14    -0.228973726935E+03    0.46550E-07   -0.27828E-08  3072   0.705E-04    0.372E-04
DAV:  15    -0.228973726926E+03    0.92614E-08   -0.23703E-09  2560   0.218E-04
   5 F= -.22897373E+03 E0= -.22897373E+03  d E =-.265661E-13
 Finite differences progress:
  Degree of freedom:   2/ 22
  Displacement:        2/  2
  Total:               4/ 44
 bond charge predicted
       N       E                     dE             d eps       ncg     rms          rms(c)
DAV:   1    -0.229287576696E+03   -0.31385E+00   -0.11547E+01  1872   0.136E+01    0.341E+00
DAV:   2    -0.229020934227E+03    0.26664E+00   -0.83136E-01  1904   0.328E+00    0.124E+00
DAV:   3    -0.228985711044E+03    0.35223E-01   -0.16760E-01  1920   0.135E+00    0.472E-01
DAV:   4    -0.228977512804E+03    0.81982E-02   -0.44055E-02  1920   0.736E-01    0.285E-01
DAV:   5    -0.228974716657E+03    0.27961E-02   -0.10312E-02  1920   0.383E-01    0.511E-02
DAV:   6    -0.228974750051E+03   -0.33395E-04   -0.18635E-03  1936   0.167E-01    0.435E-02
DAV:   7    -0.228974718969E+03    0.31082E-04   -0.72166E-04  1920   0.860E-02    0.354E-02
DAV:   8    -0.228974686078E+03    0.32891E-04   -0.15155E-04  1920   0.461E-02    0.658E-03
DAV:   9    -0.228974687257E+03   -0.11786E-05   -0.29839E-05  2080   0.207E-02    0.453E-03
DAV:  10    -0.228974686964E+03    0.29282E-06   -0.26516E-06  2000   0.827E-03    0.268E-03
DAV:  11    -0.228974687119E+03   -0.15486E-06   -0.28600E-06  1936   0.679E-03    0.134E-03
DAV:  12    -0.228974687416E+03   -0.29728E-06   -0.54280E-07  2032   0.377E-03    0.594E-04
DAV:  13    -0.228974687579E+03   -0.16348E-06   -0.18169E-07  1968   0.187E-03    0.374E-04
DAV:  14    -0.228974687710E+03   -0.13059E-06   -0.43681E-08  1776   0.986E-04    0.322E-04
DAV:  15    -0.228974687771E+03   -0.61480E-07   -0.11609E-08  1280   0.539E-04    0.319E-04
DAV:  16    -0.228974687785E+03   -0.13658E-07   -0.67257E-09  1280   0.319E-04    0.275E-04
DAV:  17    -0.228974687790E+03   -0.49567E-08   -0.19882E-09  1280   0.179E-04
   6 F= -.22897469E+03 E0= -.22897469E+03  d E =-.681342E-51
 Finite differences progress:
  Degree of freedom:   3/ 22
  Displacement:        1/  2
  Total:               5/ 44
 bond charge predicted
       N       E                     dE             d eps       ncg     rms          rms(c)
DAV:   1    -0.229450619609E+03   -0.47593E+00   -0.25697E+01  1872   0.208E+01    0.417E+00
DAV:   2    -0.229075584935E+03    0.37503E+00   -0.12566E+00  1920   0.466E+00    0.206E+00
DAV:   3    -0.228984251849E+03    0.91333E-01   -0.62258E-01  1920   0.297E+00    0.827E-01
DAV:   4    -0.228971756753E+03    0.12495E-01   -0.97394E-02  1920   0.133E+00    0.455E-01
DAV:   5    -0.228968192180E+03    0.35646E-02   -0.37273E-02  2080   0.670E-01    0.140E-01
DAV:   6    -0.228967967282E+03    0.22490E-03   -0.38290E-03  2048   0.258E-01    0.909E-02
DAV:   7    -0.228967859685E+03    0.10760E-03   -0.17744E-03  1920   0.154E-01    0.323E-02
DAV:   8    -0.228967859405E+03    0.27947E-06   -0.16804E-04  1920   0.650E-02    0.150E-02
DAV:   9    -0.228967862066E+03   -0.26607E-05   -0.63245E-05  1952   0.277E-02    0.424E-03
DAV:  10    -0.228967862237E+03   -0.17139E-06   -0.30909E-06  1920   0.745E-03    0.347E-03
DAV:  11    -0.228967862295E+03   -0.57459E-07   -0.91048E-07  1920   0.323E-03    0.153E-03
DAV:  12    -0.228967862219E+03    0.76031E-07   -0.45808E-07  2016   0.275E-03    0.427E-04
DAV:  13    -0.228967862205E+03    0.13557E-07   -0.63299E-08  1920   0.115E-03    0.401E-04
DAV:  14    -0.228967862190E+03    0.14756E-07   -0.34432E-09  1280   0.232E-04    0.379E-04
DAV:  15    -0.228967862175E+03    0.15240E-07   -0.70067E-09  1296   0.328E-04    0.245E-04
DAV:  16    -0.228967862176E+03   -0.96497E-09   -0.21909E-09  1280   0.235E-04
   7 F= -.22896786E+03 E0= -.22896786E+03  d E =-.659152E-12
 Finite differences progress:
  Degree of freedom:   3/ 22
  Displacement:        2/  2
  Total:               6/ 44
 bond charge predicted
       N       E                     dE             d eps       ncg     rms          rms(c)
DAV:   1    -0.229210354476E+03   -0.24249E+00   -0.97462E+00  5936   0.126E+01    0.238E+00
DAV:   2    -0.229086359317E+03    0.12400E+00   -0.42368E-01  6144   0.279E+00    0.127E+00
DAV:   3    -0.229048602374E+03    0.37757E-01   -0.24942E-01  6144   0.201E+00    0.510E-01
DAV:   4    -0.229044428810E+03    0.41736E-02   -0.41420E-02  6144   0.882E-01    0.311E-01
DAV:   5    -0.229042867316E+03    0.15615E-02   -0.17961E-02  6640   0.482E-01    0.964E-02
DAV:   6    -0.229042817872E+03    0.49444E-04   -0.21365E-03  6144   0.181E-01    0.766E-02
DAV:   7    -0.229042698719E+03    0.11915E-03   -0.75844E-04  6144   0.116E-01    0.175E-02
DAV:   8    -0.229042710857E+03   -0.12138E-04   -0.16654E-04  6144   0.536E-02    0.135E-02
DAV:   9    -0.229042709178E+03    0.16796E-05   -0.81988E-06  6192   0.116E-02    0.894E-03
DAV:  10    -0.229042708842E+03    0.33503E-06   -0.21712E-05  6144   0.176E-02    0.477E-03
DAV:  11    -0.229042708226E+03    0.61600E-06   -0.29840E-06  6144   0.799E-03    0.272E-03
DAV:  12    -0.229042708223E+03    0.35543E-08   -0.54114E-07  6320   0.275E-03    0.164E-03
DAV:  13    -0.229042708130E+03    0.93317E-07   -0.29938E-07  6384   0.201E-03    0.448E-04
DAV:  14    -0.229042708144E+03   -0.14481E-07   -0.49765E-08  6064   0.898E-04    0.296E-04
DAV:  15    -0.229042708172E+03   -0.28060E-07   -0.62348E-09  4096   0.333E-04    0.285E-04
DAV:  16    -0.229042708172E+03    0.44383E-09   -0.13002E-09  4096   0.195E-04
   8 F= -.22904271E+03 E0= -.22904271E+03  d E =-.358299E-11
 Finite differences progress:
  Degree of freedom:   4/ 22
  Displacement:        1/  2
  Total:               7/ 44
 bond charge predicted
       N       E                     dE             d eps       ncg     rms          rms(c)
DAV:   1    -0.229223341074E+03   -0.18063E+00   -0.71829E+00  6032   0.104E+01    0.232E+00
DAV:   2    -0.229103130065E+03    0.12021E+00   -0.32109E-01  6112   0.260E+00    0.143E+00
DAV:   3    -0.229049146112E+03    0.53984E-01   -0.31868E-01  6448   0.260E+00    0.528E-01
DAV:   4    -0.229046717176E+03    0.24289E-02   -0.66729E-02  6192   0.113E+00    0.468E-01
DAV:   5    -0.229042447383E+03    0.42698E-02   -0.36008E-02  6208   0.749E-01    0.751E-02
DAV:   6    -0.229042854681E+03   -0.40730E-03   -0.53804E-03  6144   0.305E-01    0.947E-02
DAV:   7    -0.229042764724E+03    0.89957E-04   -0.29457E-04  6272   0.711E-02    0.585E-02
DAV:   8    -0.229042703267E+03    0.61458E-04   -0.57149E-04  6144   0.101E-01    0.146E-02
DAV:   9    -0.229042711203E+03   -0.79366E-05   -0.10665E-04  6144   0.444E-02    0.146E-02
DAV:  10    -0.229042707857E+03    0.33462E-05   -0.18590E-05  6144   0.178E-02    0.414E-03
DAV:  11    -0.229042708361E+03   -0.50362E-06   -0.55438E-06  6560   0.953E-03    0.263E-03
DAV:  12    -0.229042708237E+03    0.12342E-06   -0.58363E-07  6720   0.384E-03    0.173E-03
DAV:  13    -0.229042708236E+03    0.12142E-08   -0.28768E-07  6144   0.206E-03    0.128E-03
DAV:  14    -0.229042708216E+03    0.20517E-07   -0.11727E-07  6336   0.137E-03    0.402E-04
DAV:  15    -0.229042708219E+03   -0.35661E-08   -0.38029E-08  5456   0.809E-04
   9 F= -.22904271E+03 E0= -.22904271E+03  d E =-.252944E-11
 Finite differences progress:
  Degree of freedom:   4/ 22
  Displacement:        2/  2
  Total:               8/ 44
 bond charge predicted
       N       E                     dE             d eps       ncg     rms          rms(c)
DAV:   1    -0.229132330942E+03   -0.89623E-01   -0.58468E+00  6048   0.988E+00    0.165E+00
DAV:   2    -0.229076393445E+03    0.55937E-01   -0.21267E-01  6160   0.207E+00    0.101E+00
DAV:   3    -0.229050154322E+03    0.26239E-01   -0.16422E-01  6288   0.187E+00    0.390E-01
DAV:   4    -0.229048885140E+03    0.12692E-02   -0.35628E-02  6256   0.827E-01    0.343E-01
DAV:   5    -0.229046689995E+03    0.21951E-02   -0.19239E-02  6144   0.537E-01    0.503E-02
DAV:   6    -0.229046886157E+03   -0.19616E-03   -0.25199E-03  6144   0.212E-01    0.540E-02
DAV:   7    -0.229046872864E+03    0.13292E-04   -0.12205E-04  6496   0.421E-02    0.364E-02
DAV:   8    -0.229046844106E+03    0.28758E-04   -0.14950E-04  6416   0.547E-02    0.576E-03
DAV:   9    -0.229046848821E+03   -0.47147E-05   -0.42487E-05  6144   0.254E-02    0.883E-03
DAV:  10    -0.229046847473E+03    0.13476E-05   -0.33479E-06  6688   0.880E-03    0.355E-03
DAV:  11    -0.229046847482E+03   -0.88658E-08   -0.24139E-06  6176   0.590E-03    0.109E-03
DAV:  12    -0.229046847490E+03   -0.79854E-08   -0.11992E-07  6144   0.146E-03    0.104E-03
DAV:  13    -0.229046847473E+03    0.17259E-07   -0.82987E-08  5808   0.120E-03    0.356E-04
DAV:  14    -0.229046847475E+03   -0.24756E-08   -0.34731E-08  5648   0.731E-04
  10 F= -.22904685E+03 E0= -.22904685E+03  d E =-.414175E-53
 Finite differences progress:
  Degree of freedom:   5/ 22
  Displacement:        1/  2
  Total:               9/ 44
 bond charge predicted
       N       E                     dE             d eps       ncg     rms          rms(c)
DAV:   1    -0.229213170753E+03   -0.16632E+00   -0.68602E+00  5872   0.101E+01    0.226E+00
DAV:   2    -0.229101184288E+03    0.11199E+00   -0.29731E-01  6144   0.244E+00    0.137E+00
DAV:   3    -0.229051406342E+03    0.49778E-01   -0.26559E-01  6320   0.234E+00    0.453E-01
DAV:   4    -0.229049734695E+03    0.16716E-02   -0.53845E-02  6144   0.101E+00    0.403E-01
DAV:   5    -0.229046747304E+03    0.29874E-02   -0.32513E-02  6144   0.713E-01    0.918E-02
DAV:   6    -0.229046981373E+03   -0.23407E-03   -0.44826E-03  6144   0.286E-01    0.968E-02
DAV:   7    -0.229046865523E+03    0.11585E-03   -0.51543E-04  6208   0.854E-02    0.422E-02
DAV:   8    -0.229046846777E+03    0.18746E-04   -0.41117E-04  6144   0.832E-02    0.162E-02
DAV:   9    -0.229046848559E+03   -0.17819E-05   -0.63374E-05  6144   0.364E-02    0.117E-02
DAV:  10    -0.229046847190E+03    0.13694E-05   -0.18928E-05  6144   0.154E-02    0.234E-03
DAV:  11    -0.229046847480E+03   -0.29085E-06   -0.15178E-06  6144   0.516E-03    0.962E-04
DAV:  12    -0.229046847465E+03    0.15636E-07   -0.24473E-07  6144   0.197E-03    0.585E-04
DAV:  13    -0.229046847473E+03   -0.86675E-08   -0.47243E-08  6144   0.976E-04
  11 F= -.22904685E+03 E0= -.22904685E+03  d E =-.473933E-56
 Finite differences progress:
  Degree of freedom:   5/ 22
  Displacement:        2/  2
  Total:              10/ 44
 bond charge predicted
       N       E                     dE             d eps       ncg     rms          rms(c)
DAV:   1    -0.229121558856E+03   -0.74711E-01   -0.63414E+00  3664   0.982E+00    0.148E+00
DAV:   2    -0.229081906138E+03    0.39653E-01   -0.21968E-01  3920   0.192E+00    0.921E-01
DAV:   3    -0.229048662408E+03    0.33244E-01   -0.10083E-01  3936   0.149E+00    0.269E-01
DAV:   4    -0.229048324081E+03    0.33833E-03   -0.24252E-02  3840   0.658E-01    0.243E-01
DAV:   5    -0.229046974390E+03    0.13497E-02   -0.13367E-02  3840   0.465E-01    0.716E-02
DAV:   6    -0.229046906104E+03    0.68286E-04   -0.19103E-03  3840   0.200E-01    0.470E-02
DAV:   7    -0.229046830294E+03    0.75809E-04   -0.45673E-04  3888   0.837E-02    0.991E-03
DAV:   8    -0.229046827261E+03    0.30330E-05   -0.10470E-04  4112   0.402E-02    0.774E-03
DAV:   9    -0.229046823765E+03    0.34959E-05   -0.22103E-05  4160   0.227E-02    0.301E-03
DAV:  10    -0.229046823374E+03    0.39172E-06   -0.78494E-06  3840   0.109E-02    0.363E-03
DAV:  11    -0.229046823002E+03    0.37166E-06   -0.10646E-06  3872   0.421E-03    0.190E-03
DAV:  12    -0.229046822750E+03    0.25254E-06   -0.76875E-07  3840   0.361E-03    0.715E-04
DAV:  13    -0.229046822648E+03    0.10173E-06   -0.14100E-07  3872   0.169E-03    0.814E-04
DAV:  14    -0.229046822604E+03    0.43719E-07   -0.18481E-08  2880   0.548E-04    0.625E-04
DAV:  15    -0.229046822580E+03    0.24316E-07   -0.30006E-08  3216   0.686E-04    0.262E-04
DAV:  16    -0.229046822566E+03    0.13626E-07   -0.61937E-09  2560   0.360E-04    0.253E-04
DAV:  17    -0.229046822561E+03    0.55070E-08   -0.30079E-09  2560   0.235E-04
  12 F= -.22904682E+03 E0= -.22904682E+03  d E =-.328482E-57
 Finite differences progress:
  Degree of freedom:   6/ 22
  Displacement:        1/  2
  Total:              11/ 44
 bond charge predicted
       N       E                     dE             d eps       ncg     rms          rms(c)
DAV:   1    -0.229208060791E+03   -0.16124E+00   -0.85780E+00  3728   0.115E+01    0.225E+00
DAV:   2    -0.229101838145E+03    0.10622E+00   -0.34280E-01  3840   0.256E+00    0.137E+00
DAV:   3    -0.229051139461E+03    0.50699E-01   -0.25987E-01  3952   0.233E+00    0.452E-01
DAV:   4    -0.229049528949E+03    0.16105E-02   -0.54274E-02  3840   0.101E+00    0.395E-01
DAV:   5    -0.229046752735E+03    0.27762E-02   -0.32010E-02  3840   0.703E-01    0.894E-02
DAV:   6    -0.229046939914E+03   -0.18718E-03   -0.41502E-03  3840   0.282E-01    0.826E-02
DAV:   7    -0.229046868844E+03    0.71070E-04   -0.54784E-04  3840   0.854E-02    0.287E-02
DAV:   8    -0.229046867211E+03    0.16326E-05   -0.20977E-04  4080   0.587E-02    0.126E-02
DAV:   9    -0.229046868364E+03   -0.11522E-05   -0.34086E-05  3952   0.262E-02    0.704E-03
DAV:  10    -0.229046868069E+03    0.29432E-06   -0.97305E-06  3920   0.111E-02    0.181E-03
DAV:  11    -0.229046868144E+03   -0.74233E-07   -0.66647E-07  3872   0.337E-03    0.115E-03
DAV:  12    -0.229046868133E+03    0.10623E-07   -0.16620E-07  3904   0.171E-03    0.534E-04
DAV:  13    -0.229046868135E+03   -0.23047E-08   -0.50534E-08  3840   0.912E-04
  13 F= -.22904687E+03 E0= -.22904687E+03  d E =-.889427E-56
 Finite differences progress:
  Degree of freedom:   6/ 22
  Displacement:        2/  2
  Total:              12/ 44
 bond charge predicted
       N       E                     dE             d eps       ncg     rms          rms(c)
DAV:   1    -0.229120097420E+03   -0.73229E-01   -0.26188E+00  6000   0.663E+00    0.114E+00
DAV:   2    -0.229092522865E+03    0.27575E-01   -0.97553E-02  6336   0.137E+00    0.686E-01
DAV:   3    -0.229080530812E+03    0.11992E-01   -0.64133E-02  6368   0.114E+00    0.219E-01
DAV:   4    -0.229080263810E+03    0.26700E-03   -0.13618E-02  6160   0.510E-01    0.189E-01
DAV:   5    -0.229079691635E+03    0.57218E-03   -0.68269E-03  6144   0.318E-01    0.420E-02
DAV:   6    -0.229079723168E+03   -0.31533E-04   -0.80137E-04  6144   0.125E-01    0.361E-02
DAV:   7    -0.229079709368E+03    0.13800E-04   -0.13858E-04  6208   0.440E-02    0.979E-03
DAV:   8    -0.229079710996E+03   -0.16283E-05   -0.32574E-05  6224   0.223E-02    0.564E-03
DAV:   9    -0.229079711441E+03   -0.44438E-06   -0.44703E-06  6176   0.939E-03    0.264E-03
DAV:  10    -0.229079711418E+03    0.22984E-07   -0.12769E-06  6192   0.427E-03    0.990E-04
DAV:  11    -0.229079711430E+03   -0.12011E-07   -0.13013E-07  6400   0.143E-03    0.669E-04
DAV:  12    -0.229079711425E+03    0.45920E-08   -0.47537E-08  5568   0.981E-04
  14 F= -.22907971E+03 E0= -.22907971E+03  d E =-.177876E-11
 Finite differences progress:
  Degree of freedom:   7/ 22
  Displacement:        1/  2
  Total:              13/ 44
 bond charge predicted
       N       E                     dE             d eps       ncg     rms          rms(c)
DAV:   1    -0.229079556636E+03    0.15479E-03   -0.17461E-01  5296   0.157E+00    0.182E-01
DAV:   2    -0.229079973852E+03   -0.41722E-03   -0.11432E-02  6144   0.449E-01    0.140E-01
DAV:   3    -0.229079682624E+03    0.29123E-03   -0.13627E-03  6160   0.164E-01    0.491E-02
DAV:   4    -0.229079683547E+03   -0.92308E-06   -0.29149E-04  6144   0.778E-02    0.271E-02
DAV:   5    -0.229079675897E+03    0.76497E-05   -0.13589E-04  6544   0.510E-02    0.982E-03
DAV:   6    -0.229079677255E+03   -0.13577E-05   -0.28386E-05  6144   0.228E-02    0.685E-03
DAV:   7    -0.229079677552E+03   -0.29771E-06   -0.89537E-06  6272   0.114E-02    0.270E-03
DAV:   8    -0.229079677470E+03    0.81982E-07   -0.92517E-07  6384   0.475E-03    0.140E-03
DAV:   9    -0.229079677500E+03   -0.30000E-07   -0.36774E-07  6320   0.226E-03    0.481E-04
DAV:  10    -0.229079677509E+03   -0.86447E-08   -0.48929E-08  6144   0.985E-04
  15 F= -.22907968E+03 E0= -.22907968E+03  d E =-.716174E-35
 Finite differences progress:
  Degree of freedom:   7/ 22
  Displacement:        2/  2
  Total:              14/ 44
 bond charge predicted
       N       E                     dE             d eps       ncg     rms          rms(c)
DAV:   1    -0.229079073554E+03    0.60395E-03   -0.13119E-01  5392   0.140E+00    0.134E-01
DAV:   2    -0.229079670039E+03   -0.59648E-03   -0.10223E-02  6144   0.412E-01    0.105E-01
DAV:   3    -0.229079528995E+03    0.14104E-03   -0.56367E-04  6192   0.108E-01    0.541E-02
DAV:   4    -0.229079512480E+03    0.16515E-04   -0.33471E-04  6144   0.729E-02    0.208E-02
DAV:   5    -0.229079506080E+03    0.64001E-05   -0.49931E-05  7136   0.369E-02    0.102E-02
DAV:   6    -0.229079507275E+03   -0.11942E-05   -0.32373E-05  6144   0.219E-02    0.642E-03
DAV:   7    -0.229079506865E+03    0.40923E-06   -0.45856E-06  6352   0.100E-02    0.219E-03
DAV:   8    -0.229079507054E+03   -0.18887E-06   -0.18335E-06  6384   0.536E-03    0.185E-03
DAV:   9    -0.229079507002E+03    0.52702E-07   -0.22716E-07  6352   0.235E-03    0.879E-04
DAV:  10    -0.229079507007E+03   -0.55352E-08   -0.16223E-07  6240   0.152E-03    0.341E-04
DAV:  11    -0.229079507012E+03   -0.53578E-08   -0.12575E-08  4096   0.543E-04
  16 F= -.22907951E+03 E0= -.22907951E+03  d E =-.228523E-66
 Finite differences progress:
  Degree of freedom:   8/ 22
  Displacement:        1/  2
  Total:              15/ 44
 bond charge predicted
       N       E                     dE             d eps       ncg     rms          rms(c)
DAV:   1    -0.229079397595E+03    0.10941E-03   -0.17224E-01  5136   0.156E+00    0.179E-01
DAV:   2    -0.229079835974E+03   -0.43838E-03   -0.12298E-02  6144   0.463E-01    0.141E-01
DAV:   3    -0.229079513735E+03    0.32224E-03   -0.13018E-03  6144   0.173E-01    0.545E-02
DAV:   4    -0.229079521149E+03   -0.74138E-05   -0.41484E-04  6144   0.915E-02    0.291E-02
DAV:   5    -0.229079510547E+03    0.10602E-04   -0.16197E-04  6400   0.572E-02    0.108E-02
DAV:   6    -0.229079511899E+03   -0.13522E-05   -0.31777E-05  6144   0.247E-02    0.813E-03
DAV:   7    -0.229079511787E+03    0.11226E-06   -0.11835E-05  6144   0.134E-02    0.311E-03
DAV:   8    -0.229079511712E+03    0.75206E-07   -0.12977E-06  6144   0.535E-03    0.178E-03
DAV:   9    -0.229079511728E+03   -0.16233E-07   -0.38110E-07  6720   0.233E-03    0.554E-04
DAV:  10    -0.229079511736E+03   -0.78680E-08   -0.47719E-08  6128   0.916E-04
  17 F= -.22907951E+03 E0= -.22907951E+03  d E =-.145852E-38
 Finite differences progress:
  Degree of freedom:   8/ 22
  Displacement:        2/  2
  Total:              16/ 44
 bond charge predicted
       N       E                     dE             d eps       ncg     rms          rms(c)
DAV:   1    -0.229079219731E+03    0.29200E-03   -0.13182E-01  5136   0.139E+00    0.133E-01
DAV:   2    -0.229079853234E+03   -0.63350E-03   -0.99089E-03  6144   0.400E-01    0.105E-01
DAV:   3    -0.229079698282E+03    0.15495E-03   -0.46640E-04  6448   0.107E-01    0.533E-02
DAV:   4    -0.229079690049E+03    0.82331E-05   -0.39374E-04  6176   0.857E-02    0.242E-02
DAV:   5    -0.229079679182E+03    0.10866E-04   -0.10288E-04  6768   0.487E-02    0.935E-03
DAV:   6    -0.229079681151E+03   -0.19682E-05   -0.26912E-05  6144   0.199E-02    0.627E-03
DAV:   7    -0.229079680748E+03    0.40300E-06   -0.27597E-06  6560   0.801E-03    0.230E-03
DAV:   8    -0.229079680986E+03   -0.23853E-06   -0.18810E-06  6640   0.568E-03    0.260E-03
DAV:   9    -0.229079680858E+03    0.12823E-06   -0.61948E-07  6864   0.355E-03    0.795E-04
DAV:  10    -0.229079680867E+03   -0.86602E-08   -0.11637E-07  6144   0.133E-03    0.352E-04
DAV:  11    -0.229079680871E+03   -0.40372E-08   -0.43086E-09  4096   0.272E-04
  18 F= -.22907968E+03 E0= -.22907968E+03  d E =-.139778E-56
 Finite differences progress:
  Degree of freedom:   9/ 22
  Displacement:        1/  2
  Total:              17/ 44
 bond charge predicted
       N       E                     dE             d eps       ncg     rms          rms(c)
DAV:   1    -0.229079349533E+03    0.33133E-03   -0.17721E-01  5120   0.156E+00    0.182E-01
DAV:   2    -0.229079905438E+03   -0.55591E-03   -0.10125E-02  6144   0.416E-01    0.135E-01
DAV:   3    -0.229079681075E+03    0.22436E-03   -0.13159E-03  6144   0.152E-01    0.393E-02
DAV:   4    -0.229079686608E+03   -0.55330E-05   -0.20253E-04  6144   0.655E-02    0.270E-02
DAV:   5    -0.229079679072E+03    0.75362E-05   -0.14967E-04  6144   0.497E-02    0.958E-03
DAV:   6    -0.229079680068E+03   -0.99631E-06   -0.26202E-05  6144   0.228E-02    0.649E-03
DAV:   7    -0.229079680643E+03   -0.57489E-06   -0.74424E-06  6320   0.101E-02    0.301E-03
DAV:   8    -0.229079680575E+03    0.68059E-07   -0.52378E-07  6368   0.340E-03    0.160E-03
DAV:   9    -0.229079680578E+03   -0.33424E-08   -0.27622E-07  6160   0.187E-03    0.526E-04
DAV:  10    -0.229079680579E+03   -0.54297E-09   -0.50757E-08  6048   0.943E-04
  19 F= -.22907968E+03 E0= -.22907968E+03  d E =-.311726E-11
 Finite differences progress:
  Degree of freedom:   9/ 22
  Displacement:        2/  2
  Total:              18/ 44
 bond charge predicted
       N       E                     dE             d eps       ncg     rms          rms(c)
DAV:   1    -0.229079290050E+03    0.39053E-03   -0.13066E-01  5168   0.137E+00    0.129E-01
DAV:   2    -0.229079852122E+03   -0.56207E-03   -0.90054E-03  6144   0.386E-01    0.999E-02
DAV:   3    -0.229079718949E+03    0.13317E-03   -0.53488E-04  6144   0.100E-01    0.460E-02
DAV:   4    -0.229079705820E+03    0.13128E-04   -0.19864E-04  6144   0.580E-02    0.173E-02
DAV:   5    -0.229079703068E+03    0.27521E-05   -0.46757E-05  7200   0.333E-02    0.772E-03
DAV:   6    -0.229079703975E+03   -0.90684E-06   -0.16223E-05  6144   0.151E-02    0.547E-03
DAV:   7    -0.229079703988E+03   -0.13117E-07   -0.32067E-06  6240   0.763E-03    0.262E-03
DAV:   8    -0.229079703981E+03    0.66693E-08   -0.70081E-07  6144   0.388E-03    0.155E-03
DAV:   9    -0.229079703954E+03    0.27004E-07   -0.23786E-07  6160   0.209E-03    0.795E-04
DAV:  10    -0.229079703953E+03    0.75397E-09   -0.63561E-08  6144   0.981E-04
  20 F= -.22907970E+03 E0= -.22907970E+03  d E =-.345520E-54
 Finite differences progress:
  Degree of freedom:  10/ 22
  Displacement:        1/  2
  Total:              19/ 44
 bond charge predicted
       N       E                     dE             d eps       ncg     rms          rms(c)
DAV:   1    -0.229079564182E+03    0.13977E-03   -0.17056E-01  5136   0.154E+00    0.178E-01
DAV:   2    -0.229079872144E+03   -0.30796E-03   -0.10582E-02  6144   0.437E-01    0.132E-01
DAV:   3    -0.229079598880E+03    0.27326E-03   -0.16114E-03  6304   0.189E-01    0.433E-02
DAV:   4    -0.229079610201E+03   -0.11321E-04   -0.35180E-04  6192   0.834E-02    0.297E-02
DAV:   5    -0.229079603101E+03    0.70993E-05   -0.15457E-04  6592   0.506E-02    0.103E-02
DAV:   6    -0.229079603378E+03   -0.27714E-06   -0.22189E-05  6176   0.218E-02    0.607E-03
DAV:   7    -0.229079604056E+03   -0.67713E-06   -0.91440E-06  6576   0.114E-02    0.299E-03
DAV:   8    -0.229079603876E+03    0.17916E-06   -0.11891E-06  6640   0.533E-03    0.130E-03
DAV:   9    -0.229079603920E+03   -0.43417E-07   -0.55598E-07  6144   0.276E-03    0.663E-04
DAV:  10    -0.229079603919E+03    0.77944E-09   -0.51536E-08  6144   0.112E-03
  21 F= -.22907960E+03 E0= -.22907960E+03  d E =-.374730E-12
 Finite differences progress:
  Degree of freedom:  10/ 22
  Displacement:        2/  2
  Total:              20/ 44
 bond charge predicted
       N       E                     dE             d eps       ncg     rms          rms(c)
DAV:   1    -0.229079438112E+03    0.16581E-03   -0.13250E-01  5264   0.140E+00    0.136E-01
DAV:   2    -0.229079982023E+03   -0.54391E-03   -0.99798E-03  6144   0.408E-01    0.103E-01
DAV:   3    -0.229079815322E+03    0.16670E-03   -0.60619E-04  6160   0.117E-01    0.479E-02
DAV:   4    -0.229079806332E+03    0.89897E-05   -0.28725E-04  6176   0.743E-02    0.216E-02
DAV:   5    -0.229079800524E+03    0.58085E-05   -0.82090E-05  7040   0.424E-02    0.835E-03
DAV:   6    -0.229079801712E+03   -0.11883E-05   -0.17100E-05  6144   0.164E-02    0.572E-03
DAV:   7    -0.229079801609E+03    0.10265E-06   -0.33958E-06  6624   0.778E-03    0.200E-03
DAV:   8    -0.229079801730E+03   -0.12068E-06   -0.57003E-07  6192   0.339E-03    0.131E-03
DAV:   9    -0.229079801734E+03   -0.44556E-08   -0.18754E-07  6640   0.182E-03    0.510E-04
DAV:  10    -0.229079801743E+03   -0.89094E-08   -0.51378E-08  6144   0.940E-04
  22 F= -.22907980E+03 E0= -.22907980E+03  d E =-.646465E-54
 Finite differences progress:
  Degree of freedom:  11/ 22
  Displacement:        1/  2
  Total:              21/ 44
 bond charge predicted
       N       E                     dE             d eps       ncg     rms          rms(c)
DAV:   1    -0.229079543571E+03    0.25816E-03   -0.17642E-01  5408   0.156E+00    0.183E-01
DAV:   2    -0.229079962044E+03   -0.41847E-03   -0.11314E-02  6144   0.451E-01    0.139E-01
DAV:   3    -0.229079678499E+03    0.28354E-03   -0.15354E-03  6176   0.174E-01    0.462E-02
DAV:   4    -0.229079686591E+03   -0.80919E-05   -0.30513E-04  6224   0.794E-02    0.297E-02
DAV:   5    -0.229079677684E+03    0.89071E-05   -0.16519E-04  6672   0.537E-02    0.104E-02
DAV:   6    -0.229079679409E+03   -0.17248E-05   -0.29144E-05  6144   0.234E-02    0.688E-03
DAV:   7    -0.229079680143E+03   -0.73427E-06   -0.10791E-05  6624   0.122E-02    0.298E-03
DAV:   8    -0.229079680056E+03    0.87398E-07   -0.13407E-06  6640   0.565E-03    0.138E-03
DAV:   9    -0.229079680154E+03   -0.97644E-07   -0.45159E-07  6160   0.247E-03    0.533E-04
DAV:  10    -0.229079680167E+03   -0.13380E-07   -0.56021E-08  6144   0.109E-03    0.310E-04
DAV:  11    -0.229079680168E+03   -0.15207E-08   -0.66560E-09  4096   0.395E-04
  23 F= -.22907968E+03 E0= -.22907968E+03  d E =-.135706E-11
 Finite differences progress:
  Degree of freedom:  11/ 22
  Displacement:        2/  2
  Total:              22/ 44
 bond charge predicted
       N       E                     dE             d eps       ncg     rms          rms(c)
DAV:   1    -0.229079415559E+03    0.26461E-03   -0.13222E-01  5344   0.137E+00    0.130E-01
DAV:   2    -0.229079992817E+03   -0.57726E-03   -0.87809E-03  6144   0.381E-01    0.103E-01
DAV:   3    -0.229079849285E+03    0.14353E-03   -0.52449E-04  6176   0.106E-01    0.478E-02
DAV:   4    -0.229079847464E+03    0.18206E-05   -0.29538E-04  6208   0.717E-02    0.230E-02
DAV:   5    -0.229079837919E+03    0.95451E-05   -0.75401E-05  7552   0.418E-02    0.839E-03
DAV:   6    -0.229079839389E+03   -0.14699E-05   -0.20875E-05  6144   0.173E-02    0.574E-03
DAV:   7    -0.229079839223E+03    0.16642E-06   -0.28810E-06  6656   0.777E-03    0.210E-03
DAV:   8    -0.229079839393E+03   -0.17031E-06   -0.82350E-07  6144   0.382E-03    0.164E-03
DAV:   9    -0.229079839360E+03    0.33137E-07   -0.17686E-07  6688   0.191E-03    0.682E-04
DAV:  10    -0.229079839370E+03   -0.10107E-07   -0.83930E-08  6144   0.111E-03    0.327E-04
DAV:  11    -0.229079839372E+03   -0.17462E-08   -0.51520E-09  4096   0.377E-04
  24 F= -.22907984E+03 E0= -.22907984E+03  d E =-.232718E-11
 Finite differences progress:
  Degree of freedom:  12/ 22
  Displacement:        1/  2
  Total:              23/ 44
 bond charge predicted
       N       E                     dE             d eps       ncg     rms          rms(c)
DAV:   1    -0.229079433583E+03    0.40579E-03   -0.17394E-01  5184   0.154E+00    0.179E-01
DAV:   2    -0.229080006939E+03   -0.57336E-03   -0.10090E-02  6144   0.414E-01    0.134E-01
DAV:   3    -0.229079799068E+03    0.20787E-03   -0.12167E-03  6144   0.148E-01    0.408E-02
DAV:   4    -0.229079807828E+03   -0.87595E-05   -0.20921E-04  6144   0.666E-02    0.265E-02
DAV:   5    -0.229079801462E+03    0.63656E-05   -0.13631E-04  6464   0.487E-02    0.954E-03
DAV:   6    -0.229079802756E+03   -0.12940E-05   -0.26676E-05  6144   0.220E-02    0.679E-03
DAV:   7    -0.229079803352E+03   -0.59600E-06   -0.76227E-06  6416   0.104E-02    0.316E-03
DAV:   8    -0.229079803304E+03    0.47767E-07   -0.62636E-07  6448   0.378E-03    0.176E-03
DAV:   9    -0.229079803314E+03   -0.99844E-08   -0.32149E-07  6320   0.200E-03    0.578E-04
DAV:  10    -0.229079803316E+03   -0.16444E-08   -0.48690E-08  5904   0.930E-04
  25 F= -.22907980E+03 E0= -.22907980E+03  d E =-.245184E-56
 Finite differences progress:
  Degree of freedom:  12/ 22
  Displacement:        2/  2
  Total:              24/ 44
 bond charge predicted
       N       E                     dE             d eps       ncg     rms          rms(c)
DAV:   1    -0.229079781352E+03    0.21963E-04   -0.10219E+00  5184   0.375E+00    0.185E-01
DAV:   2    -0.229079818112E+03   -0.36761E-04   -0.14228E-02  6144   0.464E-01    0.116E-01
DAV:   3    -0.229079381137E+03    0.43698E-03   -0.22980E-03  6144   0.210E-01    0.281E-02
DAV:   4    -0.229079406775E+03   -0.25638E-04   -0.52097E-04  6144   0.922E-02    0.219E-02
DAV:   5    -0.229079407919E+03   -0.11436E-05   -0.56397E-05  6544   0.293E-02    0.966E-03
DAV:   6    -0.229079407772E+03    0.14655E-06   -0.64379E-06  6144   0.112E-02    0.539E-03
DAV:   7    -0.229079408070E+03   -0.29737E-06   -0.20167E-06  6208   0.576E-03    0.123E-03
DAV:   8    -0.229079408084E+03   -0.14088E-07   -0.27296E-07  6640   0.236E-03    0.583E-04
DAV:   9    -0.229079408095E+03   -0.10750E-07   -0.43878E-08  5920   0.870E-04    0.382E-04
DAV:  10    -0.229079408096E+03   -0.11987E-08   -0.61787E-09  4096   0.393E-04
  26 F= -.22907941E+03 E0= -.22907941E+03  d E =-.456764E-58
 Finite differences progress:
  Degree of freedom:  13/ 22
  Displacement:        1/  2
  Total:              25/ 44
 bond charge predicted
       N       E                     dE             d eps       ncg     rms          rms(c)
DAV:   1    -0.229085205924E+03   -0.57978E-02   -0.20571E+00  5200   0.500E+00    0.344E-01
DAV:   2    -0.229080735160E+03    0.44708E-02   -0.21125E-02  6144   0.569E-01    0.179E-01
DAV:   3    -0.229079403113E+03    0.13320E-02   -0.80942E-03  6144   0.363E-01    0.413E-02
DAV:   4    -0.229079482442E+03   -0.79330E-04   -0.15146E-03  6144   0.154E-01    0.348E-02
DAV:   5    -0.229079483369E+03   -0.92703E-06   -0.15610E-04  6144   0.472E-02    0.152E-02
DAV:   6    -0.229079478280E+03    0.50893E-05   -0.57154E-05  6144   0.283E-02    0.759E-03
DAV:   7    -0.229079477239E+03    0.10405E-05   -0.83977E-06  6224   0.158E-02    0.181E-03
DAV:   8    -0.229079477423E+03   -0.18352E-06   -0.25100E-06  6144   0.631E-03    0.169E-03
DAV:   9    -0.229079477369E+03    0.53527E-07   -0.39645E-07  6176   0.311E-03    0.468E-04
DAV:  10    -0.229079477374E+03   -0.47157E-08   -0.84714E-08  6144   0.140E-03
  27 F= -.22907948E+03 E0= -.22907948E+03  d E =-.452771E-58
 Finite differences progress:
  Degree of freedom:  13/ 22
  Displacement:        2/  2
  Total:              26/ 44
 bond charge predicted
       N       E                     dE             d eps       ncg     rms          rms(c)
DAV:   1    -0.229083568786E+03   -0.40914E-02   -0.19339E+00  1920   0.496E+00    0.167E-01
DAV:   2    -0.229083241147E+03    0.32764E-03   -0.11538E-02  2304   0.392E-01    0.101E-01
DAV:   3    -0.229082326306E+03    0.91484E-03   -0.26478E-03  2304   0.201E-01    0.244E-02
DAV:   4    -0.229082326019E+03    0.28628E-06   -0.41094E-04  2304   0.772E-02    0.201E-02
DAV:   5    -0.229082290474E+03    0.35546E-04   -0.12537E-04  2384   0.471E-02    0.773E-03
DAV:   6    -0.229082290270E+03    0.20396E-06   -0.32603E-05  2448   0.221E-02    0.675E-03
DAV:   7    -0.229082289830E+03    0.43956E-06   -0.10695E-05  2336   0.151E-02    0.211E-03
DAV:   8    -0.229082291099E+03   -0.12694E-05   -0.33277E-06  2512   0.938E-03    0.164E-03
DAV:   9    -0.229082293886E+03   -0.27870E-05   -0.28493E-06  2560   0.989E-03    0.608E-04
DAV:  10    -0.229082294919E+03   -0.10321E-05   -0.14706E-06  2384   0.499E-03    0.556E-04
DAV:  11    -0.229082295394E+03   -0.47578E-06   -0.14355E-07  2448   0.168E-03    0.372E-04
DAV:  12    -0.229082295642E+03   -0.24796E-06   -0.30706E-08  1936   0.835E-04    0.301E-04
DAV:  13    -0.229082295793E+03   -0.15028E-06   -0.12901E-08  1536   0.548E-04    0.267E-04
DAV:  14    -0.229082295831E+03   -0.38821E-07   -0.55124E-09  1536   0.325E-04    0.268E-04
DAV:  15    -0.229082295853E+03   -0.21774E-07   -0.16755E-09  1536   0.164E-04    0.262E-04
DAV:  16    -0.229082295861E+03   -0.81091E-08   -0.57402E-10  1536   0.999E-05
  28 F= -.22908230E+03 E0= -.22908230E+03  d E =-.728744E-58
 Finite differences progress:
  Degree of freedom:  14/ 22
  Displacement:        1/  2
  Total:              27/ 44
 bond charge predicted
       N       E                     dE             d eps       ncg     rms          rms(c)
DAV:   1    -0.229083480546E+03   -0.11847E-02   -0.35828E+00  1920   0.640E+00    0.230E-01
DAV:   2    -0.229082907941E+03    0.57260E-03   -0.15823E-02  2272   0.458E-01    0.131E-01
DAV:   3    -0.229082267840E+03    0.64010E-03   -0.32255E-03  2352   0.219E-01    0.299E-02
DAV:   4    -0.229082298360E+03   -0.30520E-04   -0.49944E-04  2304   0.854E-02    0.275E-02
DAV:   5    -0.229082298840E+03   -0.48014E-06   -0.57730E-05  2400   0.292E-02    0.109E-02
DAV:   6    -0.229082297614E+03    0.12261E-05   -0.77921E-06  2304   0.129E-02    0.588E-03
DAV:   7    -0.229082297806E+03   -0.19167E-06   -0.39572E-06  2432   0.750E-03    0.188E-03
DAV:   8    -0.229082297785E+03    0.20987E-07   -0.42359E-07  2336   0.310E-03    0.990E-04
DAV:   9    -0.229082297793E+03   -0.77271E-08   -0.74304E-08  2400   0.105E-03
  29 F= -.22908230E+03 E0= -.22908230E+03  d E =-.805569E-58
 Finite differences progress:
  Degree of freedom:  14/ 22
  Displacement:        2/  2
  Total:              28/ 44
 bond charge predicted
       N       E                     dE             d eps       ncg     rms          rms(c)
DAV:   1    -0.229080850536E+03    0.14472E-02   -0.19380E+00  5120   0.520E+00    0.182E-01
DAV:   2    -0.229080644135E+03    0.20640E-03   -0.13706E-02  6144   0.451E-01    0.109E-01
DAV:   3    -0.229080131692E+03    0.51244E-03   -0.25713E-03  6208   0.221E-01    0.242E-02
DAV:   4    -0.229080165932E+03   -0.34240E-04   -0.57322E-04  6144   0.947E-02    0.228E-02
DAV:   5    -0.229080165017E+03    0.91555E-06   -0.42330E-05  6304   0.244E-02    0.106E-02
DAV:   6    -0.229080164333E+03    0.68338E-06   -0.57300E-06  6144   0.102E-02    0.519E-03
DAV:   7    -0.229080164411E+03   -0.77156E-07   -0.12980E-06  6144   0.500E-03    0.144E-03
DAV:   8    -0.229080164410E+03    0.23192E-09   -0.37685E-07  6144   0.232E-03    0.667E-04
DAV:   9    -0.229080164408E+03    0.22237E-08   -0.29590E-08  5072   0.787E-04
  30 F= -.22908016E+03 E0= -.22908016E+03  d E =-.821636E-58
 Finite differences progress:
  Degree of freedom:  15/ 22
  Displacement:        1/  2
  Total:              29/ 44
 bond charge predicted
       N       E                     dE             d eps       ncg     rms          rms(c)
DAV:   1    -0.229083881385E+03   -0.37170E-02   -0.25390E+00  5184   0.595E+00    0.300E-01
DAV:   2    -0.229081265347E+03    0.26160E-02   -0.23075E-02  6144   0.602E-01    0.165E-01
DAV:   3    -0.229080054844E+03    0.12105E-02   -0.69131E-03  6144   0.357E-01    0.385E-02
DAV:   4    -0.229080123843E+03   -0.68999E-04   -0.13127E-03  6144   0.147E-01    0.346E-02
DAV:   5    -0.229080119853E+03    0.39903E-05   -0.13693E-04  6144   0.445E-02    0.141E-02
DAV:   6    -0.229080117655E+03    0.21979E-05   -0.25292E-05  6144   0.203E-02    0.736E-03
DAV:   7    -0.229080117375E+03    0.27973E-06   -0.48682E-06  6672   0.117E-02    0.159E-03
DAV:   8    -0.229080117530E+03   -0.15510E-06   -0.16521E-06  6144   0.491E-03    0.129E-03
DAV:   9    -0.229080117519E+03    0.11531E-07   -0.22600E-07  6464   0.223E-03    0.541E-04
DAV:  10    -0.229080117525E+03   -0.63783E-08   -0.41385E-08  5232   0.955E-04
  31 F= -.22908012E+03 E0= -.22908012E+03  d E =-.539028E-58
 Finite differences progress:
  Degree of freedom:  15/ 22
  Displacement:        2/  2
  Total:              30/ 44
 bond charge predicted
       N       E                     dE             d eps       ncg     rms          rms(c)
DAV:   1    -0.229083249303E+03   -0.31318E-02   -0.18753E+00  5168   0.519E+00    0.227E-01
DAV:   2    -0.229082109015E+03    0.11403E-02   -0.17404E-02  6192   0.502E-01    0.124E-01
DAV:   3    -0.229081450241E+03    0.65877E-03   -0.37242E-03  6144   0.262E-01    0.283E-02
DAV:   4    -0.229081501814E+03   -0.51573E-04   -0.78307E-04  6128   0.111E-01    0.251E-02
DAV:   5    -0.229081498634E+03    0.31803E-05   -0.58439E-05  6144   0.293E-02    0.105E-02
DAV:   6    -0.229081498178E+03    0.45604E-06   -0.84624E-06  6144   0.121E-02    0.513E-03
DAV:   7    -0.229081498203E+03   -0.25198E-07   -0.15302E-06  6656   0.624E-03    0.957E-04
DAV:   8    -0.229081498243E+03   -0.40687E-07   -0.41055E-07  6144   0.252E-03    0.722E-04
DAV:   9    -0.229081498243E+03    0.91222E-09   -0.60579E-08  5744   0.121E-03
  32 F= -.22908150E+03 E0= -.22908150E+03  d E =-.371321E-12
 Finite differences progress:
  Degree of freedom:  16/ 22
  Displacement:        1/  2
  Total:              31/ 44
 bond charge predicted
       N       E                     dE             d eps       ncg     rms          rms(c)
DAV:   1    -0.229084014519E+03   -0.25163E-02   -0.25408E+00  5120   0.587E+00    0.258E-01
DAV:   2    -0.229082375638E+03    0.16389E-02   -0.18165E-02  6144   0.531E-01    0.144E-01
DAV:   3    -0.229081439533E+03    0.93610E-03   -0.49492E-03  6144   0.299E-01    0.328E-02
DAV:   4    -0.229081491014E+03   -0.51481E-04   -0.91322E-04  6128   0.121E-01    0.304E-02
DAV:   5    -0.229081487727E+03    0.32871E-05   -0.88356E-05  6224   0.362E-02    0.130E-02
DAV:   6    -0.229081486879E+03    0.84839E-06   -0.14757E-05  6144   0.161E-02    0.650E-03
DAV:   7    -0.229081487011E+03   -0.13236E-06   -0.30570E-06  6224   0.826E-03    0.169E-03
DAV:   8    -0.229081487085E+03   -0.74279E-07   -0.96195E-07  6144   0.380E-03    0.957E-04
DAV:   9    -0.229081487088E+03   -0.26312E-08   -0.97637E-08  6560   0.151E-03
  33 F= -.22908149E+03 E0= -.22908149E+03  d E =-.313000E-54
 Finite differences progress:
  Degree of freedom:  16/ 22
  Displacement:        2/  2
  Total:              32/ 44
 bond charge predicted
       N       E                     dE             d eps       ncg     rms          rms(c)
DAV:   1    -0.229081438212E+03    0.48873E-04   -0.18748E+00  5120   0.519E+00    0.215E-01
DAV:   2    -0.229080557827E+03    0.88038E-03   -0.16146E-02  6144   0.482E-01    0.119E-01
DAV:   3    -0.229079970210E+03    0.58762E-03   -0.32406E-03  6144   0.235E-01    0.270E-02
DAV:   4    -0.229080008171E+03   -0.37961E-04   -0.63845E-04  6144   0.988E-02    0.227E-02
DAV:   5    -0.229080007160E+03    0.10105E-05   -0.50795E-05  6160   0.272E-02    0.926E-03
DAV:   6    -0.229080006666E+03    0.49445E-06   -0.64218E-06  6144   0.110E-02    0.489E-03
DAV:   7    -0.229080006806E+03   -0.14077E-06   -0.23471E-06  6656   0.674E-03    0.128E-03
DAV:   8    -0.229080006788E+03    0.18774E-07   -0.38472E-07  6592   0.290E-03    0.707E-04
DAV:   9    -0.229080006797E+03   -0.97261E-08   -0.13744E-07  6304   0.142E-03    0.461E-04
DAV:  10    -0.229080006797E+03   -0.17008E-09   -0.12395E-08  4096   0.602E-04
  34 F= -.22908001E+03 E0= -.22908001E+03  d E =-.234515E-52
 Finite differences progress:
  Degree of freedom:  17/ 22
  Displacement:        1/  2
  Total:              33/ 44
 bond charge predicted
       N       E                     dE             d eps       ncg     rms          rms(c)
DAV:   1    -0.229083982897E+03   -0.39761E-02   -0.25213E+00  5200   0.593E+00    0.309E-01
DAV:   2    -0.229081179616E+03    0.28033E-02   -0.22972E-02  6144   0.593E-01    0.168E-01
DAV:   3    -0.229080001801E+03    0.11778E-02   -0.64453E-03  6144   0.317E-01    0.380E-02
DAV:   4    -0.229080046158E+03   -0.44357E-04   -0.10727E-03  6144   0.128E-01    0.291E-02
DAV:   5    -0.229080047417E+03   -0.12597E-05   -0.10257E-04  6144   0.389E-02    0.115E-02
DAV:   6    -0.229080045432E+03    0.19852E-05   -0.15720E-05  6144   0.168E-02    0.632E-03
DAV:   7    -0.229080045622E+03   -0.18954E-06   -0.72023E-06  6144   0.115E-02    0.230E-03
DAV:   8    -0.229080045543E+03    0.79106E-07   -0.11282E-06  6144   0.525E-03    0.127E-03
DAV:   9    -0.229080045566E+03   -0.23070E-07   -0.53499E-07  6624   0.269E-03    0.685E-04
DAV:  10    -0.229080045563E+03    0.25111E-08   -0.48922E-08  6064   0.112E-03
  35 F= -.22908005E+03 E0= -.22908005E+03  d E =-.785101E-13
 Finite differences progress:
  Degree of freedom:  17/ 22
  Displacement:        2/  2
  Total:              34/ 44
 bond charge predicted
       N       E                     dE             d eps       ncg     rms          rms(c)
DAV:   1    -0.229081460639E+03   -0.14151E-02   -0.18635E+00  5184   0.524E+00    0.205E-01
DAV:   2    -0.229081197552E+03    0.26309E-03   -0.18087E-02  6176   0.499E-01    0.119E-01
DAV:   3    -0.229080595557E+03    0.60199E-03   -0.29339E-03  6144   0.226E-01    0.236E-02
DAV:   4    -0.229080632481E+03   -0.36924E-04   -0.54919E-04  6144   0.909E-02    0.211E-02
DAV:   5    -0.229080631365E+03    0.11161E-05   -0.36139E-05  6160   0.234E-02    0.936E-03
DAV:   6    -0.229080631186E+03    0.17850E-06   -0.43781E-06  6144   0.933E-03    0.467E-03
DAV:   7    -0.229080631246E+03   -0.60013E-07   -0.14508E-06  6640   0.536E-03    0.951E-04
DAV:   8    -0.229080631260E+03   -0.13589E-07   -0.26220E-07  6144   0.219E-03    0.588E-04
DAV:   9    -0.229080631266E+03   -0.58644E-08   -0.25938E-08  4592   0.698E-04
  36 F= -.22908063E+03 E0= -.22908063E+03  d E =-.445775E-52
 Finite differences progress:
  Degree of freedom:  18/ 22
  Displacement:        1/  2
  Total:              35/ 44
 bond charge predicted
       N       E                     dE             d eps       ncg     rms          rms(c)
DAV:   1    -0.229083762535E+03   -0.31313E-02   -0.25539E+00  5120   0.593E+00    0.286E-01
DAV:   2    -0.229081604350E+03    0.21582E-02   -0.20817E-02  6144   0.571E-01    0.157E-01
DAV:   3    -0.229080550236E+03    0.10541E-02   -0.60278E-03  6144   0.333E-01    0.375E-02
DAV:   4    -0.229080604463E+03   -0.54227E-04   -0.11355E-03  6144   0.139E-01    0.333E-02
DAV:   5    -0.229080602778E+03    0.16849E-05   -0.14344E-04  6224   0.450E-02    0.136E-02
DAV:   6    -0.229080600359E+03    0.24188E-05   -0.23689E-05  6144   0.197E-02    0.762E-03
DAV:   7    -0.229080600277E+03    0.81594E-07   -0.61102E-06  6672   0.119E-02    0.151E-03
DAV:   8    -0.229080600370E+03   -0.92313E-07   -0.12664E-06  6144   0.461E-03    0.126E-03
DAV:   9    -0.229080600366E+03    0.38681E-08   -0.26316E-07  6144   0.214E-03    0.581E-04
DAV:  10    -0.229080600370E+03   -0.42564E-08   -0.41036E-08  5024   0.982E-04
  37 F= -.22908060E+03 E0= -.22908060E+03  d E =-.289685E-13
 Finite differences progress:
  Degree of freedom:  18/ 22
  Displacement:        2/  2
  Total:              36/ 44
 bond charge predicted
       N       E                     dE             d eps       ncg     rms          rms(c)
DAV:   1    -0.229082769672E+03   -0.21693E-02   -0.18866E+00  5136   0.520E+00    0.230E-01
DAV:   2    -0.229081551966E+03    0.12177E-02   -0.16779E-02  6144   0.499E-01    0.125E-01
DAV:   3    -0.229080883599E+03    0.66837E-03   -0.37768E-03  6144   0.261E-01    0.286E-02
DAV:   4    -0.229080934234E+03   -0.50635E-04   -0.77443E-04  6144   0.111E-01    0.251E-02
DAV:   5    -0.229080931001E+03    0.32330E-05   -0.56053E-05  6144   0.284E-02    0.108E-02
DAV:   6    -0.229080930650E+03    0.35061E-06   -0.74940E-06  6144   0.115E-02    0.514E-03
DAV:   7    -0.229080930644E+03    0.61782E-08   -0.14748E-06  6624   0.615E-03    0.871E-04
DAV:   8    -0.229080930673E+03   -0.29335E-07   -0.37593E-07  6144   0.246E-03    0.711E-04
DAV:   9    -0.229080930668E+03    0.55870E-08   -0.72303E-08  5776   0.122E-03
  38 F= -.22908093E+03 E0= -.22908093E+03  d E =-.307331E-46
 Finite differences progress:
  Degree of freedom:  19/ 22
  Displacement:        1/  2
  Total:              37/ 44
 bond charge predicted
       N       E                     dE             d eps       ncg     rms          rms(c)
DAV:   1    -0.229084327941E+03   -0.33973E-02   -0.25393E+00  5120   0.592E+00    0.288E-01
DAV:   2    -0.229081937715E+03    0.23902E-02   -0.20687E-02  6144   0.571E-01    0.158E-01
DAV:   3    -0.229080849941E+03    0.10878E-02   -0.60625E-03  6144   0.332E-01    0.355E-02
DAV:   4    -0.229080914362E+03   -0.64421E-04   -0.11436E-03  6144   0.136E-01    0.321E-02
DAV:   5    -0.229080911761E+03    0.26011E-05   -0.11100E-04  6144   0.396E-02    0.134E-02
DAV:   6    -0.229080910255E+03    0.15062E-05   -0.19804E-05  6144   0.181E-02    0.686E-03
DAV:   7    -0.229080910203E+03    0.51847E-07   -0.47822E-06  6832   0.113E-02    0.142E-03
DAV:   8    -0.229080910337E+03   -0.13372E-06   -0.12882E-06  6144   0.439E-03    0.117E-03
DAV:   9    -0.229080910345E+03   -0.84228E-08   -0.19664E-07  6240   0.195E-03    0.581E-04
DAV:  10    -0.229080910354E+03   -0.86256E-08   -0.30775E-08  4608   0.843E-04
  39 F= -.22908091E+03 E0= -.22908091E+03  d E =-.677561E-16
 Finite differences progress:
  Degree of freedom:  19/ 22
  Displacement:        2/  2
  Total:              38/ 44
 bond charge predicted
       N       E                     dE             d eps       ncg     rms          rms(c)
DAV:   1    -0.229080702638E+03    0.20771E-03   -0.18695E+00  5184   0.516E+00    0.202E-01
DAV:   2    -0.229080208100E+03    0.49454E-03   -0.16341E-02  6144   0.475E-01    0.110E-01
DAV:   3    -0.229079715974E+03    0.49213E-03   -0.27244E-03  6144   0.213E-01    0.244E-02
DAV:   4    -0.229079753729E+03   -0.37755E-04   -0.52518E-04  6144   0.877E-02    0.214E-02
DAV:   5    -0.229079753190E+03    0.53915E-06   -0.34807E-05  6240   0.225E-02    0.953E-03
DAV:   6    -0.229079753115E+03    0.74566E-07   -0.41055E-06  6144   0.909E-03    0.464E-03
DAV:   7    -0.229079753301E+03   -0.18579E-06   -0.15418E-06  6464   0.539E-03    0.101E-03
DAV:   8    -0.229079753289E+03    0.12365E-07   -0.23690E-07  6320   0.229E-03    0.581E-04
DAV:   9    -0.229079753293E+03   -0.48076E-08   -0.85750E-08  6352   0.112E-03
  40 F= -.22907975E+03 E0= -.22907975E+03  d E =-.122419E-11
 Finite differences progress:
  Degree of freedom:  20/ 22
  Displacement:        1/  2
  Total:              39/ 44
 bond charge predicted
       N       E                     dE             d eps       ncg     rms          rms(c)
DAV:   1    -0.229084007246E+03   -0.42540E-02   -0.25376E+00  5248   0.594E+00    0.319E-01
DAV:   2    -0.229080951897E+03    0.30553E-02   -0.24414E-02  6160   0.611E-01    0.174E-01
DAV:   3    -0.229079698873E+03    0.12530E-02   -0.69076E-03  6128   0.328E-01    0.386E-02
DAV:   4    -0.229079746010E+03   -0.47136E-04   -0.11540E-03  6144   0.134E-01    0.293E-02
DAV:   5    -0.229079747990E+03   -0.19809E-05   -0.10738E-04  6144   0.395E-02    0.118E-02
DAV:   6    -0.229079745761E+03    0.22294E-05   -0.16535E-05  6144   0.171E-02    0.647E-03
DAV:   7    -0.229079745928E+03   -0.16719E-06   -0.74976E-06  6144   0.116E-02    0.235E-03
DAV:   8    -0.229079745834E+03    0.94757E-07   -0.11376E-06  6400   0.528E-03    0.122E-03
DAV:   9    -0.229079745856E+03   -0.22343E-07   -0.50121E-07  6416   0.264E-03    0.667E-04
DAV:  10    -0.229079745854E+03    0.21510E-08   -0.43007E-08  5952   0.106E-03
  41 F= -.22907975E+03 E0= -.22907975E+03  d E =-.138030E-54
 Finite differences progress:
  Degree of freedom:  20/ 22
  Displacement:        2/  2
  Total:              40/ 44
 bond charge predicted
       N       E                     dE             d eps       ncg     rms          rms(c)
DAV:   1    -0.229080608838E+03   -0.86298E-03   -0.18656E+00  5168   0.527E+00    0.221E-01
DAV:   2    -0.229079983240E+03    0.62560E-03   -0.20593E-02  6224   0.546E-01    0.128E-01
DAV:   3    -0.229079287059E+03    0.69618E-03   -0.38657E-03  6144   0.258E-01    0.276E-02
DAV:   4    -0.229079326820E+03   -0.39761E-04   -0.71790E-04  6144   0.106E-01    0.227E-02
DAV:   5    -0.229079325836E+03    0.98440E-06   -0.59508E-05  6320   0.298E-02    0.898E-03
DAV:   6    -0.229079325687E+03    0.14838E-06   -0.66796E-06  6144   0.111E-02    0.510E-03
DAV:   7    -0.229079325734E+03   -0.46791E-07   -0.23851E-06  6656   0.692E-03    0.110E-03
DAV:   8    -0.229079325749E+03   -0.14498E-07   -0.44130E-07  6144   0.298E-03    0.716E-04
DAV:   9    -0.229079325752E+03   -0.38208E-08   -0.11648E-07  6608   0.136E-03    0.405E-04
DAV:  10    -0.229079325751E+03    0.16771E-08   -0.13853E-08  4096   0.652E-04
  42 F= -.22907933E+03 E0= -.22907933E+03  d E =-.773799E-58
 Finite differences progress:
  Degree of freedom:  21/ 22
  Displacement:        1/  2
  Total:              41/ 44
 bond charge predicted
       N       E                     dE             d eps       ncg     rms          rms(c)
DAV:   1    -0.229084256093E+03   -0.49303E-02   -0.20700E+00  5184   0.510E+00    0.330E-01
DAV:   2    -0.229080439744E+03    0.38163E-02   -0.21331E-02  6144   0.578E-01    0.174E-01
DAV:   3    -0.229079205587E+03    0.12342E-02   -0.80540E-03  6144   0.368E-01    0.404E-02
DAV:   4    -0.229079285396E+03   -0.79809E-04   -0.15112E-03  6144   0.156E-01    0.362E-02
DAV:   5    -0.229079285297E+03    0.99834E-07   -0.16687E-04  6240   0.487E-02    0.159E-02
DAV:   6    -0.229079279269E+03    0.60271E-05   -0.56695E-05  6144   0.287E-02    0.820E-03
DAV:   7    -0.229079278442E+03    0.82751E-06   -0.88729E-06  6672   0.162E-02    0.186E-03
DAV:   8    -0.229079278649E+03   -0.20663E-06   -0.24789E-06  6144   0.610E-03    0.170E-03
DAV:   9    -0.229079278605E+03    0.43242E-07   -0.49008E-07  6464   0.331E-03    0.652E-04
DAV:  10    -0.229079278607E+03   -0.15789E-08   -0.99134E-08  6176   0.162E-03
  43 F= -.22907928E+03 E0= -.22907928E+03  d E =-.147751E-56
 Finite differences progress:
  Degree of freedom:  21/ 22
  Displacement:        2/  2
  Total:              42/ 44
 bond charge predicted
       N       E                     dE             d eps       ncg     rms          rms(c)
DAV:   1    -0.229083562651E+03   -0.42840E-02   -0.19267E+00  1920   0.503E+00    0.166E-01
DAV:   2    -0.229083345703E+03    0.21695E-03   -0.13105E-02  2304   0.423E-01    0.100E-01
DAV:   3    -0.229082483898E+03    0.86181E-03   -0.21339E-03  2304   0.185E-01    0.253E-02
DAV:   4    -0.229082439832E+03    0.44066E-04   -0.44152E-04  2304   0.772E-02    0.199E-02
DAV:   5    -0.229082396472E+03    0.43360E-04   -0.94489E-05  2400   0.430E-02    0.681E-03
DAV:   6    -0.229082386902E+03    0.95704E-05   -0.32081E-05  2432   0.244E-02    0.485E-03
DAV:   7    -0.229082381310E+03    0.55923E-05   -0.10421E-05  2512   0.159E-02    0.190E-03
DAV:   8    -0.229082379352E+03    0.19581E-05   -0.39339E-06  2496   0.995E-03    0.107E-03
DAV:   9    -0.229082377557E+03    0.17944E-05   -0.21557E-06  2816   0.963E-03    0.526E-04
DAV:  10    -0.229082377323E+03    0.23366E-06   -0.14770E-06  2304   0.514E-03    0.437E-04
DAV:  11    -0.229082377214E+03    0.10906E-06   -0.17691E-07  2496   0.179E-03    0.343E-04
DAV:  12    -0.229082377158E+03    0.56656E-07   -0.23021E-08  1600   0.786E-04    0.276E-04
DAV:  13    -0.229082377150E+03    0.73105E-08   -0.10974E-08  1536   0.456E-04
  44 F= -.22908238E+03 E0= -.22908238E+03  d E =-.247248E-11
 Finite differences progress:
  Degree of freedom:  22/ 22
  Displacement:        1/  2
  Total:              43/ 44
 bond charge predicted
       N       E                     dE             d eps       ncg     rms          rms(c)
DAV:   1    -0.229083729025E+03   -0.13519E-02   -0.35481E+00  1920   0.645E+00    0.234E-01
DAV:   2    -0.229082983464E+03    0.74556E-03   -0.18609E-02  2304   0.527E-01    0.132E-01
DAV:   3    -0.229082348620E+03    0.63484E-03   -0.38331E-03  2304   0.248E-01    0.319E-02
DAV:   4    -0.229082385053E+03   -0.36433E-04   -0.63023E-04  2304   0.995E-02    0.270E-02
DAV:   5    -0.229082396124E+03   -0.11070E-04   -0.14484E-04  2480   0.449E-02    0.137E-02
DAV:   6    -0.229082391053E+03    0.50711E-05   -0.23601E-05  2416   0.224E-02    0.782E-03
DAV:   7    -0.229082391928E+03   -0.87529E-06   -0.12649E-05  2416   0.136E-02    0.331E-03
DAV:   8    -0.229082391681E+03    0.24664E-06   -0.18420E-06  2464   0.692E-03    0.125E-03
DAV:   9    -0.229082391725E+03   -0.43566E-07   -0.45529E-07  2304   0.261E-03    0.755E-04
DAV:  10    -0.229082391729E+03   -0.36816E-08   -0.43780E-08  2128   0.877E-04
  45 F= -.22908239E+03 E0= -.22908239E+03  d E =-.637484E-57
 Finite differences progress:
  Degree of freedom:  22/ 22
  Displacement:        2/  2
  Total:              44/ 44
