<?xml version="1.0" encoding="ISO-8859-1"?>
<modeling>
 <generator>
  <i name="program" type="string">vasp </i>
  <i name="version" type="string">5.4.1  </i>
  <i name="subversion" type="string">05Feb16 (build Mar 26 2016 11:58:25) complex                          parallel </i>
  <i name="platform" type="string">IFC91_ompi </i>
  <i name="date" type="string">2016 08 24 </i>
  <i name="time" type="string">15:00:47 </i>
 </generator>
 <incar>
  <i type="string" name="SYSTEM"> POSCAR (VASP)</i>
  <i type="string" name="PREC">accurate</i>
  <i type="int" name="IALGO">    38</i>
  <i type="logical" name="ADDGRID"> T  </i>
  <i type="int" name="IBRION">     6</i>
  <i name="EDIFF">      0.00000001</i>
  <i type="int" name="ISIF">     3</i>
  <i name="ENCUT">    500.00000000</i>
  <i type="logical" name="LREAL"> F  </i>
  <i type="int" name="ISMEAR">     0</i>
  <i name="SIGMA">      0.01000000</i>
  <i type="logical" name="LWAVE"> F  </i>
  <i type="logical" name="LCHARG"> F  </i>
  <v type="int" name="KPOINT_BSE">    -1     0     0     0</v>
 </incar>
 <kpoints>
  <generation param="Monkhorst-Pack">
   <v type="int" name="divisions">       4        4        4 </v>
   <v name="usershift">      0.50000000       0.50000000       0.00000000 </v>
   <v name="genvec1">      0.25000000       0.00000000       0.00000000 </v>
   <v name="genvec2">      0.00000000       0.25000000       0.00000000 </v>
   <v name="genvec3">      0.00000000       0.00000000       0.25000000 </v>
   <v name="shift">      0.00000000       0.00000000       0.50000000 </v>
  </generation>
  <varray name="kpointlist" >
   <v>       0.00000000       0.00000000       0.12500000 </v>
   <v>       0.25000000       0.00000000       0.12500000 </v>
   <v>       0.50000000       0.00000000       0.12500000 </v>
   <v>       0.25000000       0.25000000       0.12500000 </v>
   <v>      -0.25000000       0.50000000       0.12500000 </v>
   <v>       0.00000000       0.00000000       0.37500000 </v>
   <v>       0.25000000       0.00000000       0.37500000 </v>
   <v>       0.50000000       0.00000000       0.37500000 </v>
   <v>       0.25000000       0.25000000       0.37500000 </v>
   <v>      -0.25000000       0.50000000       0.37500000 </v>
  </varray>
  <varray name="weights" >
   <v>       0.03125000 </v>
   <v>       0.18750000 </v>
   <v>       0.09375000 </v>
   <v>       0.09375000 </v>
   <v>       0.09375000 </v>
   <v>       0.03125000 </v>
   <v>       0.18750000 </v>
   <v>       0.09375000 </v>
   <v>       0.09375000 </v>
   <v>       0.09375000 </v>
  </varray>
 </kpoints>
 <parameters>
  <separator name="general" >
   <i type="string" name="SYSTEM">POSCAR (VASP)</i>
   <i type="logical" name="LCOMPAT"> F  </i>
  </separator>
  <separator name="electronic" >
   <i type="string" name="PREC">accura</i>
   <i name="ENMAX">    500.00000000</i>
   <i name="ENAUG">    627.11200000</i>
   <i name="EDIFF">      0.00000001</i>
   <i type="int" name="IALGO">    38</i>
   <i type="int" name="IWAVPR">    11</i>
   <i type="int" name="NBANDS">    80</i>
   <i name="NELECT">    128.00000000</i>
   <i type="int" name="TURBO">     0</i>
   <i type="int" name="IRESTART">     0</i>
   <i type="int" name="NREBOOT">     0</i>
   <i type="int" name="NMIN">     0</i>
   <i name="EREF">      0.00000000</i>
   <separator name="electronic smearing" >
    <i type="int" name="ISMEAR">     0</i>
    <i name="SIGMA">      0.01000000</i>
    <i name="KSPACING">      0.50000000</i>
    <i type="logical" name="KGAMMA"> T  </i>
   </separator>
   <separator name="electronic projectors" >
    <i type="logical" name="LREAL"> F  </i>
    <v name="ROPT">      0.00000000      0.00000000</v>
    <i type="int" name="LMAXPAW">  -100</i>
    <i type="int" name="LMAXMIX">     2</i>
    <i type="logical" name="NLSPLINE"> F  </i>
   </separator>
   <separator name="electronic startup" >
    <i type="int" name="ISTART">     0</i>
    <i type="int" name="ICHARG">     2</i>
    <i type="int" name="INIWAV">     1</i>
   </separator>
   <separator name="electronic spin" >
    <i type="int" name="ISPIN">     1</i>
    <i type="logical" name="LNONCOLLINEAR"> F  </i>
    <v name="MAGMOM">      1.00000000      1.00000000      1.00000000      1.00000000      1.00000000      1.00000000      1.00000000      1.00000000      1.00000000      1.00000000      1.00000000      1.00000000      1.00000000      1.00000000      1.00000000      1.00000000      1.00000000      1.00000000      1.00000000      1.00000000
      1.00000000      1.00000000      1.00000000      1.00000000      1.00000000      1.00000000      1.00000000      1.00000000</v>
    <i name="NUPDOWN">     -1.00000000</i>
    <i type="logical" name="LSORBIT"> F  </i>
    <v name="SAXIS">      0.00000000      0.00000000      1.00000000</v>
    <i type="logical" name="LSPIRAL"> F  </i>
    <v name="QSPIRAL">      0.00000000      0.00000000      0.00000000</v>
    <i type="logical" name="LZEROZ"> F  </i>
   </separator>
   <separator name="electronic exchange-correlation" >
    <i type="logical" name="LASPH"> F  </i>
    <i type="logical" name="LMETAGGA"> F  </i>
   </separator>
   <separator name="electronic convergence" >
    <i type="int" name="NELM">    60</i>
    <i type="int" name="NELMDL">    -5</i>
    <i type="int" name="NELMIN">     2</i>
    <i name="ENINI">    500.00000000</i>
    <separator name="electronic convergence detail" >
     <i type="logical" name="LDIAG"> T  </i>
     <i type="logical" name="LSUBROT"> F  </i>
     <i name="WEIMIN">      0.00100000</i>
     <i name="EBREAK">      0.00000000</i>
     <i name="DEPER">      0.30000000</i>
     <i type="int" name="NRMM">     4</i>
     <i name="TIME">      0.40000000</i>
    </separator>
   </separator>
   <separator name="electronic mixer" >
    <i name="AMIX">      0.40000000</i>
    <i name="BMIX">      1.00000000</i>
    <i name="AMIN">      0.10000000</i>
    <i name="AMIX_MAG">      1.60000000</i>
    <i name="BMIX_MAG">      1.00000000</i>
    <separator name="electronic mixer details" >
     <i type="int" name="IMIX">     4</i>
     <i type="logical" name="MIXFIRST"> F  </i>
     <i type="int" name="MAXMIX">   -45</i>
     <i name="WC">    100.00000000</i>
     <i type="int" name="INIMIX">     1</i>
     <i type="int" name="MIXPRE">     1</i>
     <i type="int" name="MREMOVE">     5</i>
    </separator>
   </separator>
   <separator name="electronic dipolcorrection" >
    <i type="logical" name="LDIPOL"> F  </i>
    <i type="logical" name="LMONO"> F  </i>
    <i type="int" name="IDIPOL">     0</i>
    <i name="EPSILON">      1.00000000</i>
    <v name="DIPOL">   -100.00000000   -100.00000000   -100.00000000</v>
    <i name="EFIELD">      0.00000000</i>
   </separator>
  </separator>
  <separator name="grids" >
   <i type="int" name="NGX">    60</i>
   <i type="int" name="NGY">    60</i>
   <i type="int" name="NGZ">    42</i>
   <i type="int" name="NGXF">   120</i>
   <i type="int" name="NGYF">   120</i>
   <i type="int" name="NGZF">    84</i>
   <i type="logical" name="ADDGRID"> T  </i>
  </separator>
  <separator name="ionic" >
   <i type="int" name="NSW">   373</i>
   <i type="int" name="IBRION">     6</i>
   <i type="int" name="ISIF">     3</i>
   <i name="PSTRESS">      0.00000000</i>
   <i name="EDIFFG">      0.00000010</i>
   <i type="int" name="NFREE">     2</i>
   <i name="POTIM">      0.50000000</i>
   <i name="SMASS">     -3.00000000</i>
   <i name="SCALEE">      1.00000000</i>
  </separator>
  <separator name="ionic md" >
   <i name="TEBEG">      0.00010000</i>
   <i name="TEEND">      0.00010000</i>
   <i type="int" name="NBLOCK">     1</i>
   <i type="int" name="KBLOCK">     1</i>
   <i type="int" name="NPACO">   256</i>
   <i name="APACO">     16.00000000</i>
  </separator>
  <separator name="symmetry" >
   <i type="int" name="ISYM">     2</i>
   <i name="SYMPREC">      0.00001000</i>
  </separator>
  <separator name="dos" >
   <i type="logical" name="LORBIT"> F  </i>
   <v name="RWIGS">     -1.00000000     -1.00000000</v>
   <i type="int" name="NEDOS">   301</i>
   <i name="EMIN">     10.00000000</i>
   <i name="EMAX">    -10.00000000</i>
   <i name="EFERMI">      0.00000000</i>
  </separator>
  <separator name="writing" >
   <i type="int" name="NWRITE">     2</i>
   <i type="logical" name="LWAVE"> F  </i>
   <i type="logical" name="LCHARG"> F  </i>
   <i type="logical" name="LPARD"> F  </i>
   <i type="logical" name="LVTOT"> F  </i>
   <i type="logical" name="LVHAR"> F  </i>
   <i type="logical" name="LELF"> F  </i>
   <i type="logical" name="LOPTICS"> F  </i>
   <v name="STM">      0.00000000      0.00000000      0.00000000      0.00000000      0.00000000      0.00000000      0.00000000</v>
  </separator>
  <separator name="performance" >
   <i type="int" name="NPAR">    16</i>
   <i type="int" name="NSIM">     4</i>
   <i type="int" name="NBLK">    -1</i>
   <i type="logical" name="LPLANE"> T  </i>
   <i type="logical" name="LSCALAPACK"> T  </i>
   <i type="logical" name="LSCAAWARE"> F  </i>
   <i type="logical" name="LSCALU"> F  </i>
   <i type="logical" name="LASYNC"> F  </i>
   <i type="logical" name="LORBITALREAL"> F  </i>
  </separator>
  <separator name="miscellaneous" >
   <i type="int" name="IDIOT">     3</i>
   <i type="logical" name="LMUSIC"> F  </i>
   <v name="POMASS">     28.08500000     14.00100000</v>
   <v name="DARWINR">      0.00000000      0.00000000</v>
   <v name="DARWINV">      1.00000000      1.00000000</v>
   <i type="logical" name="LCORR"> T  </i>
  </separator>
  <i type="logical" name="GGA_COMPAT"> T  </i>
  <i type="logical" name="LBERRY"> F  </i>
  <i type="int" name="ICORELEVEL">     0</i>
  <i type="logical" name="LDAU"> F  </i>
  <i type="int" name="I_CONSTRAINED_M">     0</i>
  <separator name="electronic exchange-correlation" >
   <i type="string" name="GGA">--</i>
   <i type="int" name="VOSKOWN">     0</i>
   <i type="logical" name="LHFCALC"> F  </i>
   <i type="string" name="PRECFOCK"></i>
   <i type="logical" name="LSYMGRAD"> F  </i>
   <i type="logical" name="LHFONE"> F  </i>
   <i type="logical" name="LRHFCALC"> F  </i>
   <i type="logical" name="LTHOMAS"> F  </i>
   <i type="logical" name="LMODELHF"> F  </i>
   <i name="ENCUT4O">     -1.00000000</i>
   <i type="int" name="EXXOEP">     0</i>
   <i type="int" name="FOURORBIT">     0</i>
   <i name="AEXX">      0.00000000</i>
   <i name="HFALPHA">      0.00000000</i>
   <i name="MCALPHA">      0.00000000</i>
   <i name="ALDAX">      1.00000000</i>
   <i name="AGGAX">      1.00000000</i>
   <i name="ALDAC">      1.00000000</i>
   <i name="AGGAC">      1.00000000</i>
   <i type="int" name="NKREDX">     1</i>
   <i type="int" name="NKREDY">     1</i>
   <i type="int" name="NKREDZ">     1</i>
   <i type="logical" name="SHIFTRED"> F  </i>
   <i type="logical" name="ODDONLY"> F  </i>
   <i type="logical" name="EVENONLY"> F  </i>
   <i type="int" name="LMAXFOCK">     0</i>
   <i type="int" name="NMAXFOCKAE">     0</i>
   <i type="logical" name="LFOCKAEDFT"> F  </i>
   <i name="HFSCREEN">      0.00000000</i>
   <i name="HFSCREENC">      0.00000000</i>
   <i type="int" name="NBANDSGWLOW">     0</i>
  </separator>
  <separator name="vdW DFT" >
   <i type="logical" name="LUSE_VDW"> F  </i>
   <i name="Zab_VDW">     -0.84910000</i>
   <i name="PARAM1">      0.12340000</i>
   <i name="PARAM2">      1.00000000</i>
   <i name="PARAM3">      0.00000000</i>
  </separator>
  <separator name="model GW" >
   <i type="int" name="MODEL_GW">     0</i>
   <i name="MODEL_EPS0">      6.40248810</i>
   <i name="MODEL_ALPHA">      1.00000000</i>
  </separator>
  <separator name="linear response parameters" >
   <i type="logical" name="LEPSILON"> F  </i>
   <i type="logical" name="LRPA"> F  </i>
   <i type="logical" name="LNABLA"> F  </i>
   <i type="logical" name="LVEL"> F  </i>
   <i type="int" name="KINTER">     0</i>
   <i name="CSHIFT">      0.10000000</i>
   <i name="OMEGAMAX">     -1.00000000</i>
   <i name="DEG_THRESHOLD">      0.00200000</i>
  </separator>
  <separator name="orbital magnetization" >
   <i type="logical" name="NUCIND"> F  </i>
   <v name="MAGPOS">      0.00000000      0.00000000      0.00000000</v>
   <i type="logical" name="LNICSALL"> T  </i>
   <i type="logical" name="ORBITALMAG"> F  </i>
   <i type="logical" name="LMAGBLOCH"> F  </i>
   <i type="logical" name="LCHIMAG"> F  </i>
   <i type="logical" name="LGAUGE"> T  </i>
   <i type="int" name="MAGATOM">     0</i>
   <v name="MAGDIPOL">      0.00000000      0.00000000      0.00000000</v>
   <v name="AVECCONST">      0.00000000      0.00000000      0.00000000</v>
  </separator>
  <separator name="response functions" >
   <i type="logical" name="LADDER"> F  </i>
   <i type="logical" name="LFXC"> F  </i>
   <i type="logical" name="LHARTREE"> T  </i>
   <i type="int" name="IBSE">     0</i>
   <v type="int" name="KPOINT">    -1     0     0     0</v>
   <i type="logical" name="LTCTE"> F  </i>
   <i type="logical" name="LTETE"> F  </i>
   <i type="logical" name="LTRIPLET"> F  </i>
   <i type="logical" name="LFXCEPS"> F  </i>
   <i type="logical" name="LFXHEG"> F  </i>
   <i type="int" name="NATURALO">     0</i>
   <i type="logical" name="L2ORDER"> F  </i>
   <i type="logical" name="LUSEW"> F  </i>
   <i name="ENCUTGW">     -2.00000000</i>
   <i name="ENCUTGWSOFT">     -2.00000000</i>
   <i name="ENCUTLF">     -1.00000000</i>
   <i type="int" name="LMAXMP2">    -1</i>
   <i name="SCISSOR">      0.00000000</i>
   <i type="int" name="NOMEGA">     0</i>
   <i type="int" name="NOMEGAR">     0</i>
   <i type="int" name="NBANDSGW">    -1</i>
   <i type="int" name="NBANDSO">    -1</i>
   <i type="int" name="NBANDSV">    -1</i>
   <i type="int" name="NELM">     1</i>
   <i type="int" name="NELMHF">     1</i>
   <i type="int" name="DIM">     3</i>
   <i type="int" name="ANTIRES">     0</i>
   <i name="OMEGAMAX">    -30.00000000</i>
   <i name="OMEGAMIN">    -30.00000000</i>
   <i name="OMEGATL">   -200.00000000</i>
   <i type="int" name="OMEGAGRID">     0</i>
   <i name="CSHIFT">     -0.10000000</i>
   <i type="logical" name="SELFENERGY"> F  </i>
   <i type="logical" name="LSPECTRAL"> F  </i>
   <i type="logical" name="LSPECTRALGW"> F  </i>
   <i type="logical" name="LSINGLES"> F  </i>
   <i type="logical" name="LFERMIGW"> F  </i>
   <i type="logical" name="ODDONLYGW"> F  </i>
   <i type="logical" name="EVENONLYGW"> F  </i>
   <i type="int" name="NKREDLFX">     1</i>
   <i type="int" name="NKREDLFY">     1</i>
   <i type="int" name="NKREDLFZ">     1</i>
   <i type="int" name="MAXMEM">  1800</i>
   <i type="int" name="TELESCOPE">     0</i>
   <i type="int" name="TAUPAR">     1</i>
   <i type="int" name="OMEGAPAR">    -1</i>
   <i name="LAMBDA">      1.00000000</i>
  </separator>
  <separator name="External order field" >
   <i name="OFIELD_KAPPA">      0.00000000</i>
   <v name="OFIELD_K">      0.00000000      0.00000000      0.00000000</v>
   <i name="OFIELD_Q6_NEAR">      0.00000000</i>
   <i name="OFIELD_Q6_FAR">      0.00000000</i>
   <i name="OFIELD_A">      0.00000000</i>
  </separator>
 </parameters>
 <atominfo>
  <atoms>      28 </atoms>
  <types>       2 </types>
  <array name="atoms" >
   <dimension dim="1">ion</dimension>
   <field type="string">element</field>
   <field type="int">atomtype</field>
   <set>
    <rc><c>Si</c><c>   1</c></rc>
    <rc><c>Si</c><c>   1</c></rc>
    <rc><c>Si</c><c>   1</c></rc>
    <rc><c>Si</c><c>   1</c></rc>
    <rc><c>Si</c><c>   1</c></rc>
    <rc><c>Si</c><c>   1</c></rc>
    <rc><c>Si</c><c>   1</c></rc>
    <rc><c>Si</c><c>   1</c></rc>
    <rc><c>Si</c><c>   1</c></rc>
    <rc><c>Si</c><c>   1</c></rc>
    <rc><c>Si</c><c>   1</c></rc>
    <rc><c>Si</c><c>   1</c></rc>
    <rc><c>N </c><c>   2</c></rc>
    <rc><c>N </c><c>   2</c></rc>
    <rc><c>N </c><c>   2</c></rc>
    <rc><c>N </c><c>   2</c></rc>
    <rc><c>N </c><c>   2</c></rc>
    <rc><c>N </c><c>   2</c></rc>
    <rc><c>N </c><c>   2</c></rc>
    <rc><c>N </c><c>   2</c></rc>
    <rc><c>N </c><c>   2</c></rc>
    <rc><c>N </c><c>   2</c></rc>
    <rc><c>N </c><c>   2</c></rc>
    <rc><c>N </c><c>   2</c></rc>
    <rc><c>N </c><c>   2</c></rc>
    <rc><c>N </c><c>   2</c></rc>
    <rc><c>N </c><c>   2</c></rc>
    <rc><c>N </c><c>   2</c></rc>
   </set>
  </array>
  <array name="atomtypes" >
   <dimension dim="1">type</dimension>
   <field type="int">atomspertype</field>
   <field type="string">element</field>
   <field>mass</field>
   <field>valence</field>
   <field type="string">pseudopotential</field>
   <set>
    <rc><c>  12</c><c>Si</c><c>     28.08500000</c><c>      4.00000000</c><c> PAW_PBE Si 05Jan2001                   </c></rc>
    <rc><c>  16</c><c>N </c><c>     14.00100000</c><c>      5.00000000</c><c> PAW_PBE N 08Apr2002                    </c></rc>
   </set>
  </array>
 </atominfo>
 <structure name="initialpos" >
  <crystal>
   <varray name="basis" >
    <v>       7.80799694       0.00000000       0.00000000 </v>
    <v>      -3.90399847       6.76192371       0.00000000 </v>
    <v>       0.00000000       0.00000000       5.65907773 </v>
   </varray>
   <i name="volume">    298.78277784 </i>
   <varray name="rec_basis" >
    <v>       0.12807382       0.07394345       0.00000000 </v>
    <v>       0.00000000       0.14788691       0.00000000 </v>
    <v>       0.00000000       0.00000000       0.17670724 </v>
   </varray>
  </crystal>
  <varray name="positions" >
   <v>       0.74655031       0.83273361       0.04910018 </v>
   <v>       0.16726639       0.91381670       0.04910018 </v>
   <v>       0.08618330       0.25344969       0.04910018 </v>
   <v>       0.48787659       0.91757862       0.34091057 </v>
   <v>       0.42970202       0.51212341       0.34091057 </v>
   <v>       0.08242138       0.57029798       0.34091057 </v>
   <v>       0.83273361       0.74655031       0.54910018 </v>
   <v>       0.91381670       0.16726639       0.54910018 </v>
   <v>       0.25344969       0.08618330       0.54910018 </v>
   <v>       0.91757862       0.48787659       0.84091057 </v>
   <v>       0.51212341       0.42970202       0.84091057 </v>
   <v>       0.57029798       0.08242138       0.84091057 </v>
   <v>       0.00000000       0.00000000       0.04841213 </v>
   <v>       0.34454378       0.39000553       0.06813357 </v>
   <v>       0.60999447       0.95453825       0.06813357 </v>
   <v>       0.04546175       0.65545622       0.06813357 </v>
   <v>       0.68117069       0.68546246       0.30301109 </v>
   <v>       0.00429178       0.31882931       0.30301109 </v>
   <v>       0.31453754       0.99570822       0.30301109 </v>
   <v>       0.33333333       0.66666667       0.39654168 </v>
   <v>       0.00000000       0.00000000       0.54841213 </v>
   <v>       0.39000553       0.34454378       0.56813357 </v>
   <v>       0.95453825       0.60999447       0.56813357 </v>
   <v>       0.65545622       0.04546175       0.56813357 </v>
   <v>       0.68546246       0.68117069       0.80301109 </v>
   <v>       0.31882931       0.00429178       0.80301109 </v>
   <v>       0.99570822       0.31453754       0.80301109 </v>
   <v>       0.66666667       0.33333333       0.89654168 </v>
  </varray>
 </structure>
 <calculation>
  <scstep>
   <time name="dav">    4.64    4.64</time>
   <time name="total">    4.99    5.00</time>
   <energy>
    <i name="alphaZ">    190.80924540 </i>
    <i name="ewald">  -4771.94815241 </i>
    <i name="hartreedc">  -1161.86283371 </i>
    <i name="XCdc">    220.56478991 </i>
    <i name="pawpsdc">   2188.48366046 </i>
    <i name="pawaedc">  -1999.43990914 </i>
    <i name="eentropy">     -0.00073083 </i>
    <i name="bandstr">    455.59519401 </i>
    <i name="atom">   5469.35267200 </i>
    <i name="e_fr_energy">    591.55393569 </i>
    <i name="e_wo_entrp">    591.55466653 </i>
    <i name="e_0_energy">    591.55430111 </i>
   </energy>
  </scstep>
  <scstep>
   <time name="dav">    5.63    5.64</time>
   <time name="total">    5.64    5.64</time>
   <energy>
    <i name="e_fr_energy">   -215.07913558 </i>
    <i name="e_wo_entrp">   -215.07913558 </i>
    <i name="e_0_energy">   -215.07913558 </i>
   </energy>
  </scstep>
  <scstep>
   <time name="dav">    5.28    5.28</time>
   <time name="total">    5.28    5.36</time>
   <energy>
    <i name="e_fr_energy">   -260.59126676 </i>
    <i name="e_wo_entrp">   -260.59126676 </i>
    <i name="e_0_energy">   -260.59126676 </i>
   </energy>
  </scstep>
  <scstep>
   <time name="dav">    5.35    5.40</time>
   <time name="total">    5.35    7.57</time>
   <energy>
    <i name="e_fr_energy">   -261.48943870 </i>
    <i name="e_wo_entrp">   -261.48943870 </i>
    <i name="e_0_energy">   -261.48943870 </i>
   </energy>
  </scstep>
  <scstep>
   <time name="dav">    5.12    5.15</time>
   <time name="total">    5.75    5.79</time>
   <energy>
    <i name="e_fr_energy">   -261.51659227 </i>
    <i name="e_wo_entrp">   -261.51659227 </i>
    <i name="e_0_energy">   -261.51659227 </i>
   </energy>
  </scstep>
  <scstep>
   <time name="dav">    5.27    5.28</time>
   <time name="total">    6.26    6.27</time>
   <energy>
    <i name="e_fr_energy">   -229.24619959 </i>
    <i name="e_wo_entrp">   -229.24619959 </i>
    <i name="e_0_energy">   -229.24619959 </i>
   </energy>
  </scstep>
  <scstep>
   <time name="dav">    5.61    5.62</time>
   <time name="total">    6.59    6.61</time>
   <energy>
    <i name="e_fr_energy">   -229.15858437 </i>
    <i name="e_wo_entrp">   -229.15858437 </i>
    <i name="e_0_energy">   -229.15858437 </i>
   </energy>
  </scstep>
  <scstep>
   <time name="dav">    5.27    5.28</time>
   <time name="total">    6.25    6.29</time>
   <energy>
    <i name="e_fr_energy">   -229.10288532 </i>
    <i name="e_wo_entrp">   -229.10288532 </i>
    <i name="e_0_energy">   -229.10288532 </i>
   </energy>
  </scstep>
  <scstep>
   <time name="dav">    5.28    5.29</time>
   <time name="total">    6.26    6.28</time>
   <energy>
    <i name="e_fr_energy">   -229.08025932 </i>
    <i name="e_wo_entrp">   -229.08025932 </i>
    <i name="e_0_energy">   -229.08025932 </i>
   </energy>
  </scstep>
  <scstep>
   <time name="dav">    5.30    5.31</time>
   <time name="total">    6.28    6.30</time>
   <energy>
    <i name="e_fr_energy">   -229.08244365 </i>
    <i name="e_wo_entrp">   -229.08244365 </i>
    <i name="e_0_energy">   -229.08244365 </i>
   </energy>
  </scstep>
  <scstep>
   <time name="dav">    5.34    5.34</time>
   <time name="total">    6.33    6.34</time>
   <energy>
    <i name="e_fr_energy">   -229.08327641 </i>
    <i name="e_wo_entrp">   -229.08327641 </i>
    <i name="e_0_energy">   -229.08327641 </i>
   </energy>
  </scstep>
  <scstep>
   <time name="dav">    5.29    5.29</time>
   <time name="total">    6.27    6.28</time>
   <energy>
    <i name="e_fr_energy">   -229.08337278 </i>
    <i name="e_wo_entrp">   -229.08337278 </i>
    <i name="e_0_energy">   -229.08337278 </i>
   </energy>
  </scstep>
  <scstep>
   <time name="dav">    5.31    5.31</time>
   <time name="total">    6.29    6.29</time>
   <energy>
    <i name="e_fr_energy">   -229.08340362 </i>
    <i name="e_wo_entrp">   -229.08340362 </i>
    <i name="e_0_energy">   -229.08340362 </i>
   </energy>
  </scstep>
  <scstep>
   <time name="dav">    5.43    5.46</time>
   <time name="total">    6.41    9.18</time>
   <energy>
    <i name="e_fr_energy">   -229.08340721 </i>
    <i name="e_wo_entrp">   -229.08340721 </i>
    <i name="e_0_energy">   -229.08340721 </i>
   </energy>
  </scstep>
  <scstep>
   <time name="dav">    5.28    5.31</time>
   <time name="total">    6.22    6.25</time>
   <energy>
    <i name="e_fr_energy">   -229.08340842 </i>
    <i name="e_wo_entrp">   -229.08340842 </i>
    <i name="e_0_energy">   -229.08340842 </i>
   </energy>
  </scstep>
  <scstep>
   <time name="dav">    5.13    5.16</time>
   <time name="total">    6.07    6.11</time>
   <energy>
    <i name="e_fr_energy">   -229.08340915 </i>
    <i name="e_wo_entrp">   -229.08340915 </i>
    <i name="e_0_energy">   -229.08340915 </i>
   </energy>
  </scstep>
  <scstep>
   <time name="dav">    5.14    5.17</time>
   <time name="total">    6.08    6.11</time>
   <energy>
    <i name="e_fr_energy">   -229.08340924 </i>
    <i name="e_wo_entrp">   -229.08340924 </i>
    <i name="e_0_energy">   -229.08340924 </i>
   </energy>
  </scstep>
  <scstep>
   <time name="dav">    4.12    4.17</time>
   <time name="total">    5.06    5.11</time>
   <energy>
    <i name="e_fr_energy">   -229.08340923 </i>
    <i name="e_wo_entrp">   -229.08340923 </i>
    <i name="e_0_energy">   -229.08340923 </i>
   </energy>
  </scstep>
  <scstep>
   <time name="dav">    3.90    3.92</time>
   <time name="total">    4.83    4.87</time>
   <energy>
    <i name="e_fr_energy">   -229.08340921 </i>
    <i name="e_wo_entrp">   -229.08340921 </i>
    <i name="e_0_energy">   -229.08340921 </i>
   </energy>
  </scstep>
  <scstep>
   <time name="dav">    3.90    3.92</time>
   <time name="total">    4.25    4.28</time>
   <energy>
    <i name="alphaZ">    190.80924540 </i>
    <i name="ewald">  -4771.94815241 </i>
    <i name="hartreedc">  -1442.96932511 </i>
    <i name="XCdc">    242.21023773 </i>
    <i name="pawpsdc">   3102.54179939 </i>
    <i name="pawaedc">  -2918.48485136 </i>
    <i name="eentropy">      0.00000000 </i>
    <i name="bandstr">   -100.59503486 </i>
    <i name="atom">   5469.35267200 </i>
    <i name="e_fr_energy">   -229.08340921 </i>
    <i name="e_wo_entrp">   -229.08340921 </i>
    <i name="e_0_energy">   -229.08340921 </i>
   </energy>
  </scstep>
  <structure>
   <crystal>
    <varray name="basis" >
     <v>       7.80799694       0.00000000       0.00000000 </v>
     <v>      -3.90399847       6.76192371       0.00000000 </v>
     <v>       0.00000000       0.00000000       5.65907773 </v>
    </varray>
    <i name="volume">    298.78277784 </i>
    <varray name="rec_basis" >
     <v>       0.12807382       0.07394345       0.00000000 </v>
     <v>       0.00000000       0.14788691       0.00000000 </v>
     <v>       0.00000000       0.00000000       0.17670724 </v>
    </varray>
   </crystal>
   <varray name="positions" >
    <v>       0.74655031       0.83273361       0.04910018 </v>
    <v>       0.16726639       0.91381670       0.04910018 </v>
    <v>       0.08618330       0.25344969       0.04910018 </v>
    <v>       0.48787659       0.91757862       0.34091057 </v>
    <v>       0.42970202       0.51212341       0.34091057 </v>
    <v>       0.08242138       0.57029798       0.34091057 </v>
    <v>       0.83273361       0.74655031       0.54910018 </v>
    <v>       0.91381670       0.16726639       0.54910018 </v>
    <v>       0.25344969       0.08618330       0.54910018 </v>
    <v>       0.91757862       0.48787659       0.84091057 </v>
    <v>       0.51212341       0.42970202       0.84091057 </v>
    <v>       0.57029798       0.08242138       0.84091057 </v>
    <v>       0.00000000       0.00000000       0.04841213 </v>
    <v>       0.34454378       0.39000553       0.06813357 </v>
    <v>       0.60999447       0.95453825       0.06813357 </v>
    <v>       0.04546175       0.65545622       0.06813357 </v>
    <v>       0.68117069       0.68546246       0.30301109 </v>
    <v>       0.00429178       0.31882931       0.30301109 </v>
    <v>       0.31453754       0.99570822       0.30301109 </v>
    <v>       0.33333333       0.66666667       0.39654168 </v>
    <v>       0.00000000       0.00000000       0.54841213 </v>
    <v>       0.39000553       0.34454378       0.56813357 </v>
    <v>       0.95453825       0.60999447       0.56813357 </v>
    <v>       0.65545622       0.04546175       0.56813357 </v>
    <v>       0.68546246       0.68117069       0.80301109 </v>
    <v>       0.31882931       0.00429178       0.80301109 </v>
    <v>       0.99570822       0.31453754       0.80301109 </v>
    <v>       0.66666667       0.33333333       0.89654168 </v>
   </varray>
  </structure>
  <varray name="forces" >
   <v>      -0.00000093      -0.00000216      -0.00000096 </v>
   <v>       0.00000233       0.00000027      -0.00000096 </v>
   <v>      -0.00000140       0.00000188      -0.00000096 </v>
   <v>      -0.00000140      -0.00000258      -0.00000076 </v>
   <v>      -0.00000153       0.00000250      -0.00000076 </v>
   <v>       0.00000294       0.00000008      -0.00000076 </v>
   <v>      -0.00000140      -0.00000188      -0.00000096 </v>
   <v>      -0.00000093       0.00000216      -0.00000096 </v>
   <v>       0.00000233      -0.00000027      -0.00000096 </v>
   <v>      -0.00000153      -0.00000250      -0.00000076 </v>
   <v>       0.00000294      -0.00000008      -0.00000076 </v>
   <v>      -0.00000140       0.00000258      -0.00000076 </v>
   <v>       0.00000000       0.00000000      -0.00000112 </v>
   <v>       0.00000040      -0.00000038      -0.00000177 </v>
   <v>       0.00000013       0.00000054      -0.00000177 </v>
   <v>      -0.00000053      -0.00000016      -0.00000177 </v>
   <v>       0.00000124       0.00000006      -0.00000129 </v>
   <v>      -0.00000057      -0.00000111      -0.00000129 </v>
   <v>      -0.00000067       0.00000104      -0.00000129 </v>
   <v>       0.00000000       0.00000000       0.00001547 </v>
   <v>       0.00000000       0.00000000      -0.00000112 </v>
   <v>      -0.00000053       0.00000016      -0.00000177 </v>
   <v>       0.00000040       0.00000038      -0.00000177 </v>
   <v>       0.00000013      -0.00000054      -0.00000177 </v>
   <v>      -0.00000057       0.00000111      -0.00000129 </v>
   <v>      -0.00000067      -0.00000104      -0.00000129 </v>
   <v>       0.00000124      -0.00000006      -0.00000129 </v>
   <v>       0.00000000       0.00000000       0.00001547 </v>
  </varray>
  <varray name="stress" >
   <v>      -0.00078349       0.00000000       0.00000000 </v>
   <v>       0.00000000      -0.00078349       0.00000000 </v>
   <v>       0.00000000       0.00000000      -0.00080957 </v>
  </varray>
  <energy>
   <i name="e_fr_energy">   -229.08340921 </i>
   <i name="e_wo_entrp">   -229.08340921 </i>
   <i name="e_0_energy">      0.00000000 </i>
  </energy>
  <kpoints>
   <generation param="Monkhorst-Pack">
    <v type="int" name="divisions">       4        4        4 </v>
    <v name="usershift">      0.50000000       0.50000000       0.00000000 </v>
    <v name="genvec1">      0.25000000       0.00000000       0.00000000 </v>
    <v name="genvec2">      0.00000000       0.25000000       0.00000000 </v>
    <v name="genvec3">      0.00000000       0.00000000       0.25000000 </v>
    <v name="shift">      0.00000000       0.00000000       0.50000000 </v>
   </generation>
   <varray name="kpointlist" >
    <v>       0.00000000       0.00000000       0.12500000 </v>
    <v>       0.25000000       0.00000000       0.12500000 </v>
    <v>       0.50000000       0.00000000       0.12500000 </v>
    <v>      -0.25000000       0.00000000       0.12500000 </v>
    <v>       0.00000000       0.25000000       0.12500000 </v>
    <v>       0.25000000       0.25000000       0.12500000 </v>
    <v>       0.50000000       0.25000000       0.12500000 </v>
    <v>       0.00000000       0.50000000       0.12500000 </v>
    <v>      -0.25000000       0.50000000       0.12500000 </v>
    <v>       0.50000000      -0.25000000       0.12500000 </v>
    <v>       0.00000000       0.00000000       0.37500000 </v>
    <v>       0.25000000       0.00000000       0.37500000 </v>
    <v>       0.50000000       0.00000000       0.37500000 </v>
    <v>      -0.25000000       0.00000000       0.37500000 </v>
    <v>       0.00000000       0.25000000       0.37500000 </v>
    <v>       0.25000000       0.25000000       0.37500000 </v>
    <v>       0.50000000       0.25000000       0.37500000 </v>
    <v>       0.00000000       0.50000000       0.37500000 </v>
    <v>      -0.25000000       0.50000000       0.37500000 </v>
    <v>       0.50000000      -0.25000000       0.37500000 </v>
   </varray>
   <varray name="weights" >
    <v>       0.03125000 </v>
    <v>       0.06250000 </v>
    <v>       0.06250000 </v>
    <v>       0.06250000 </v>
    <v>       0.06250000 </v>
    <v>       0.06250000 </v>
    <v>       0.03125000 </v>
    <v>       0.03125000 </v>
    <v>       0.06250000 </v>
    <v>       0.03125000 </v>
    <v>       0.03125000 </v>
    <v>       0.06250000 </v>
    <v>       0.06250000 </v>
    <v>       0.06250000 </v>
    <v>       0.06250000 </v>
    <v>       0.06250000 </v>
    <v>       0.03125000 </v>
    <v>       0.03125000 </v>
    <v>       0.06250000 </v>
    <v>       0.03125000 </v>
   </varray>
  </kpoints>
  <time name="totalsc">  128.72  134.37</time>
 </calculation>
 <calculation>
  <scstep>
   <time name="dav">    9.90    9.91</time>
   <time name="total">   11.04   11.09</time>
   <energy>
    <i name="alphaZ">    187.98940433 </i>
    <i name="ewald">  -4748.27505251 </i>
    <i name="hartreedc">  -1435.79035275 </i>
    <i name="XCdc">    240.13291520 </i>
    <i name="pawpsdc">   3102.54094303 </i>
    <i name="pawaedc">  -2918.48399359 </i>
    <i name="eentropy">      0.00000000 </i>
    <i name="bandstr">   -126.56525062 </i>
    <i name="atom">   5469.35267200 </i>
    <i name="e_fr_energy">   -229.09871490 </i>
    <i name="e_wo_entrp">   -229.09871490 </i>
    <i name="e_0_energy">   -229.09871490 </i>
   </energy>
  </scstep>
  <scstep>
   <time name="dav">   10.01   10.05</time>
   <time name="total">   11.14   13.29</time>
   <energy>
    <i name="e_fr_energy">   -229.00501049 </i>
    <i name="e_wo_entrp">   -229.00501049 </i>
    <i name="e_0_energy">   -229.00501049 </i>
   </energy>
  </scstep>
  <scstep>
   <time name="dav">    9.98    9.99</time>
   <time name="total">   11.12   11.14</time>
   <energy>
    <i name="e_fr_energy">   -228.98371537 </i>
    <i name="e_wo_entrp">   -228.98371537 </i>
    <i name="e_0_energy">   -228.98371537 </i>
   </energy>
  </scstep>
  <scstep>
   <time name="dav">   10.01   10.01</time>
   <time name="total">   11.14   11.16</time>
   <energy>
    <i name="e_fr_energy">   -228.98081990 </i>
    <i name="e_wo_entrp">   -228.98081990 </i>
    <i name="e_0_energy">   -228.98081990 </i>
   </energy>
  </scstep>
  <scstep>
   <time name="dav">   10.64   10.65</time>
   <time name="total">   11.78   11.82</time>
   <energy>
    <i name="e_fr_energy">   -228.97987410 </i>
    <i name="e_wo_entrp">   -228.97987410 </i>
    <i name="e_0_energy">   -228.97987410 </i>
   </energy>
  </scstep>
  <scstep>
   <time name="dav">   10.03   10.04</time>
   <time name="total">   11.17   11.19</time>
   <energy>
    <i name="e_fr_energy">   -228.97982869 </i>
    <i name="e_wo_entrp">   -228.97982869 </i>
    <i name="e_0_energy">   -228.97982869 </i>
   </energy>
  </scstep>
  <scstep>
   <time name="dav">   10.01   10.07</time>
   <time name="total">   11.14   14.16</time>
   <energy>
    <i name="e_fr_energy">   -228.97979255 </i>
    <i name="e_wo_entrp">   -228.97979255 </i>
    <i name="e_0_energy">   -228.97979255 </i>
   </energy>
  </scstep>
  <scstep>
   <time name="dav">    9.98   10.05</time>
   <time name="total">   11.11   11.19</time>
   <energy>
    <i name="e_fr_energy">   -228.97978975 </i>
    <i name="e_wo_entrp">   -228.97978975 </i>
    <i name="e_0_energy">   -228.97978975 </i>
   </energy>
  </scstep>
  <scstep>
   <time name="dav">   10.25   10.26</time>
   <time name="total">   11.40   11.43</time>
   <energy>
    <i name="e_fr_energy">   -228.97978963 </i>
    <i name="e_wo_entrp">   -228.97978963 </i>
    <i name="e_0_energy">   -228.97978963 </i>
   </energy>
  </scstep>
  <scstep>
   <time name="dav">   10.05   10.06</time>
   <time name="total">   11.19   11.20</time>
   <energy>
    <i name="e_fr_energy">   -228.97978990 </i>
    <i name="e_wo_entrp">   -228.97978990 </i>
    <i name="e_0_energy">   -228.97978990 </i>
   </energy>
  </scstep>
  <scstep>
   <time name="dav">   10.04   10.05</time>
   <time name="total">   11.18   11.19</time>
   <energy>
    <i name="e_fr_energy">   -228.97978974 </i>
    <i name="e_wo_entrp">   -228.97978974 </i>
    <i name="e_0_energy">   -228.97978974 </i>
   </energy>
  </scstep>
  <scstep>
   <time name="dav">    9.97   10.01</time>
   <time name="total">   11.09   11.15</time>
   <energy>
    <i name="e_fr_energy">   -228.97978978 </i>
    <i name="e_wo_entrp">   -228.97978978 </i>
    <i name="e_0_energy">   -228.97978978 </i>
   </energy>
  </scstep>
  <scstep>
   <time name="dav">    7.62    7.66</time>
   <time name="total">    8.73    8.80</time>
   <energy>
    <i name="e_fr_energy">   -228.97978980 </i>
    <i name="e_wo_entrp">   -228.97978980 </i>
    <i name="e_0_energy">   -228.97978980 </i>
   </energy>
  </scstep>
  <scstep>
   <time name="dav">    7.60    7.65</time>
   <time name="total">    8.73    8.79</time>
   <energy>
    <i name="e_fr_energy">   -228.97978982 </i>
    <i name="e_wo_entrp">   -228.97978982 </i>
    <i name="e_0_energy">   -228.97978982 </i>
   </energy>
  </scstep>
  <scstep>
   <time name="dav">    7.63    7.64</time>
   <time name="total">    7.98    7.99</time>
   <energy>
    <i name="alphaZ">    187.98940433 </i>
    <i name="ewald">  -4748.27505251 </i>
    <i name="hartreedc">  -1448.50174933 </i>
    <i name="XCdc">    240.90023911 </i>
    <i name="pawpsdc">   3077.62789498 </i>
    <i name="pawaedc">  -2893.38339471 </i>
    <i name="eentropy">      0.00000000 </i>
    <i name="bandstr">   -114.68980371 </i>
    <i name="atom">   5469.35267200 </i>
    <i name="e_fr_energy">   -228.97978983 </i>
    <i name="e_wo_entrp">   -228.97978983 </i>
    <i name="e_0_energy">   -228.97978983 </i>
   </energy>
  </scstep>
  <structure>
   <crystal>
    <varray name="basis" >
     <v>       7.92511690       0.00000000       0.00000000 </v>
     <v>      -3.96255845       6.76192371       0.00000000 </v>
     <v>       0.00000000       0.00000000       5.65907773 </v>
    </varray>
    <i name="volume">    303.26451951 </i>
    <varray name="rec_basis" >
     <v>       0.12618110       0.07394345       0.00000000 </v>
     <v>       0.00000000       0.14788691       0.00000000 </v>
     <v>       0.00000000       0.00000000       0.17670724 </v>
    </varray>
   </crystal>
   <varray name="positions" >
    <v>       0.74655031       0.83273361       0.04910018 </v>
    <v>       0.16726639       0.91381670       0.04910018 </v>
    <v>       0.08618330       0.25344969       0.04910018 </v>
    <v>       0.48787659       0.91757862       0.34091057 </v>
    <v>       0.42970202       0.51212341       0.34091057 </v>
    <v>       0.08242138       0.57029798       0.34091057 </v>
    <v>       0.83273361       0.74655031       0.54910018 </v>
    <v>       0.91381670       0.16726639       0.54910018 </v>
    <v>       0.25344969       0.08618330       0.54910018 </v>
    <v>       0.91757862       0.48787659       0.84091057 </v>
    <v>       0.51212341       0.42970202       0.84091057 </v>
    <v>       0.57029798       0.08242138       0.84091057 </v>
    <v>       0.00000000       0.00000000       0.04841213 </v>
    <v>       0.34454378       0.39000553       0.06813357 </v>
    <v>       0.60999447       0.95453825       0.06813357 </v>
    <v>       0.04546175       0.65545622       0.06813357 </v>
    <v>       0.68117069       0.68546246       0.30301109 </v>
    <v>       0.00429178       0.31882931       0.30301109 </v>
    <v>       0.31453754       0.99570822       0.30301109 </v>
    <v>       0.33333333       0.66666667       0.39654168 </v>
    <v>       0.00000000       0.00000000       0.54841213 </v>
    <v>       0.39000553       0.34454378       0.56813357 </v>
    <v>       0.95453825       0.60999447       0.56813357 </v>
    <v>       0.65545622       0.04546175       0.56813357 </v>
    <v>       0.68546246       0.68117069       0.80301109 </v>
    <v>       0.31882931       0.00429178       0.80301109 </v>
    <v>       0.99570822       0.31453754       0.80301109 </v>
    <v>       0.66666667       0.33333333       0.89654168 </v>
   </varray>
  </structure>
  <varray name="forces" >
   <v>      -0.06137200       0.25005599       0.04370483 </v>
   <v>      -0.14759788       0.18375900       0.00477276 </v>
   <v>       0.11795053       0.13315448      -0.03027154 </v>
   <v>      -0.19790244       0.11373007      -0.04701792 </v>
   <v>      -0.06918350       0.26055227       0.01379320 </v>
   <v>       0.19855612       0.17649648       0.12518790 </v>
   <v>       0.11795053      -0.13315448      -0.03027154 </v>
   <v>      -0.06137200      -0.25005599       0.04370483 </v>
   <v>      -0.14759788      -0.18375900       0.00477276 </v>
   <v>      -0.06918350      -0.26055227       0.01379320 </v>
   <v>       0.19855612      -0.17649648       0.12518790 </v>
   <v>      -0.19790244      -0.11373007      -0.04701792 </v>
   <v>       0.14641740      -0.17249984      -0.00073462 </v>
   <v>      -0.10686220      -0.08278169      -0.10125587 </v>
   <v>       0.14279032      -0.09014091      -0.01929274 </v>
   <v>       0.00312062      -0.04938610       0.05430071 </v>
   <v>      -0.16585098      -0.11554113       0.13075636 </v>
   <v>       0.09580187      -0.00398219      -0.09879619 </v>
   <v>       0.12872806      -0.09865526       0.03551025 </v>
   <v>      -0.08459595      -0.21397766      -0.11065713 </v>
   <v>       0.14641740       0.17249984      -0.00073462 </v>
   <v>       0.00312062       0.04938610       0.05430071 </v>
   <v>      -0.10686220       0.08278169      -0.10125587 </v>
   <v>       0.14279032       0.09014091      -0.01929274 </v>
   <v>       0.09580187       0.00398219      -0.09879619 </v>
   <v>       0.12872806       0.09865526       0.03551025 </v>
   <v>      -0.16585098       0.11554113       0.13075636 </v>
   <v>      -0.08459595       0.21397766      -0.11065713 </v>
  </varray>
  <varray name="stress" >
   <v>     -72.87814690       0.00000000       1.79793890 </v>
   <v>       0.00000000     -17.13833881       0.00000000 </v>
   <v>       1.79793891       0.00000000     -13.72328574 </v>
  </varray>
  <energy>
   <i name="e_fr_energy">   -228.97978983 </i>
   <i name="e_wo_entrp">   -228.97978983 </i>
   <i name="e_0_energy">      0.00000000 </i>
  </energy>
  <kpoints>
   <generation param="Monkhorst-Pack">
    <v type="int" name="divisions">       4        4        4 </v>
    <v name="usershift">      0.50000000       0.50000000       0.00000000 </v>
    <v name="genvec1">      0.25000000       0.00000000       0.00000000 </v>
    <v name="genvec2">      0.00000000       0.25000000       0.00000000 </v>
    <v name="genvec3">      0.00000000       0.00000000       0.25000000 </v>
    <v name="shift">      0.00000000       0.00000000       0.50000000 </v>
   </generation>
   <varray name="kpointlist" >
    <v>       0.00000000       0.00000000       0.12500000 </v>
    <v>       0.25000000       0.00000000       0.12500000 </v>
    <v>       0.50000000       0.00000000       0.12500000 </v>
    <v>      -0.25000000       0.00000000       0.12500000 </v>
    <v>       0.00000000       0.25000000       0.12500000 </v>
    <v>       0.25000000       0.25000000       0.12500000 </v>
    <v>       0.50000000       0.25000000       0.12500000 </v>
    <v>       0.00000000       0.50000000       0.12500000 </v>
    <v>      -0.25000000       0.50000000       0.12500000 </v>
    <v>       0.50000000      -0.25000000       0.12500000 </v>
    <v>       0.00000000       0.00000000       0.37500000 </v>
    <v>       0.25000000       0.00000000       0.37500000 </v>
    <v>       0.50000000       0.00000000       0.37500000 </v>
    <v>      -0.25000000       0.00000000       0.37500000 </v>
    <v>       0.00000000       0.25000000       0.37500000 </v>
    <v>       0.25000000       0.25000000       0.37500000 </v>
    <v>       0.50000000       0.25000000       0.37500000 </v>
    <v>       0.00000000       0.50000000       0.37500000 </v>
    <v>      -0.25000000       0.50000000       0.37500000 </v>
    <v>       0.50000000      -0.25000000       0.37500000 </v>
   </varray>
   <varray name="weights" >
    <v>       0.03125000 </v>
    <v>       0.06250000 </v>
    <v>       0.06250000 </v>
    <v>       0.06250000 </v>
    <v>       0.06250000 </v>
    <v>       0.06250000 </v>
    <v>       0.03125000 </v>
    <v>       0.03125000 </v>
    <v>       0.06250000 </v>
    <v>       0.03125000 </v>
    <v>       0.03125000 </v>
    <v>       0.06250000 </v>
    <v>       0.06250000 </v>
    <v>       0.06250000 </v>
    <v>       0.06250000 </v>
    <v>       0.06250000 </v>
    <v>       0.03125000 </v>
    <v>       0.03125000 </v>
    <v>       0.06250000 </v>
    <v>       0.03125000 </v>
   </varray>
  </kpoints>
  <time name="totalsc">  175.54  181.24</time>
 </calculation>
 <calculation>
  <scstep>
   <time name="dav">    9.92    9.98</time>
   <time name="total">   11.15   11.24</time>
   <energy>
    <i name="alphaZ">    193.71496995 </i>
    <i name="ewald">  -4795.86206430 </i>
    <i name="hartreedc">  -1462.72729827 </i>
    <i name="XCdc">    245.09157188 </i>
    <i name="pawpsdc">   3077.62772244 </i>
    <i name="pawaedc">  -2893.38322099 </i>
    <i name="eentropy">      0.00000000 </i>
    <i name="bandstr">    -63.26588695 </i>
    <i name="atom">   5469.35267200 </i>
    <i name="e_fr_energy">   -229.45153424 </i>
    <i name="e_wo_entrp">   -229.45153424 </i>
    <i name="e_0_energy">   -229.45153424 </i>
   </energy>
  </scstep>
  <scstep>
   <time name="dav">    9.97   10.03</time>
   <time name="total">   11.19   12.98</time>
   <energy>
    <i name="e_fr_energy">   -229.06979946 </i>
    <i name="e_wo_entrp">   -229.06979946 </i>
    <i name="e_0_energy">   -229.06979946 </i>
   </energy>
  </scstep>
  <scstep>
   <time name="dav">    9.95   10.02</time>
   <time name="total">   11.12   11.21</time>
   <energy>
    <i name="e_fr_energy">   -228.98811668 </i>
    <i name="e_wo_entrp">   -228.98811668 </i>
    <i name="e_0_energy">   -228.98811668 </i>
   </energy>
  </scstep>
  <scstep>
   <time name="dav">    9.84    9.84</time>
   <time name="total">   11.00   11.01</time>
   <energy>
    <i name="e_fr_energy">   -228.97679542 </i>
    <i name="e_wo_entrp">   -228.97679542 </i>
    <i name="e_0_energy">   -228.97679542 </i>
   </energy>
  </scstep>
  <scstep>
   <time name="dav">   10.40   10.40</time>
   <time name="total">   11.58   11.59</time>
   <energy>
    <i name="e_fr_energy">   -228.97389386 </i>
    <i name="e_wo_entrp">   -228.97389386 </i>
    <i name="e_0_energy">   -228.97389386 </i>
   </energy>
  </scstep>
  <scstep>
   <time name="dav">    9.72    9.73</time>
   <time name="total">   10.87   10.88</time>
   <energy>
    <i name="e_fr_energy">   -228.97380877 </i>
    <i name="e_wo_entrp">   -228.97380877 </i>
    <i name="e_0_energy">   -228.97380877 </i>
   </energy>
  </scstep>
  <scstep>
   <time name="dav">    9.71    9.71</time>
   <time name="total">   10.86   10.87</time>
   <energy>
    <i name="e_fr_energy">   -228.97374139 </i>
    <i name="e_wo_entrp">   -228.97374139 </i>
    <i name="e_0_energy">   -228.97374139 </i>
   </energy>
  </scstep>
  <scstep>
   <time name="dav">   10.02   10.02</time>
   <time name="total">   11.17   11.20</time>
   <energy>
    <i name="e_fr_energy">   -228.97372282 </i>
    <i name="e_wo_entrp">   -228.97372282 </i>
    <i name="e_0_energy">   -228.97372282 </i>
   </energy>
  </scstep>
  <scstep>
   <time name="dav">    9.85    9.88</time>
   <time name="total">   11.00   11.19</time>
   <energy>
    <i name="e_fr_energy">   -228.97372755 </i>
    <i name="e_wo_entrp">   -228.97372755 </i>
    <i name="e_0_energy">   -228.97372755 </i>
   </energy>
  </scstep>
  <scstep>
   <time name="dav">    9.86    9.89</time>
   <time name="total">   11.00   11.04</time>
   <energy>
    <i name="e_fr_energy">   -228.97372765 </i>
    <i name="e_wo_entrp">   -228.97372765 </i>
    <i name="e_0_energy">   -228.97372765 </i>
   </energy>
  </scstep>
  <scstep>
   <time name="dav">    9.69    9.71</time>
   <time name="total">   10.84   10.89</time>
   <energy>
    <i name="e_fr_energy">   -228.97372781 </i>
    <i name="e_wo_entrp">   -228.97372781 </i>
    <i name="e_0_energy">   -228.97372781 </i>
   </energy>
  </scstep>
  <scstep>
   <time name="dav">   10.12   10.14</time>
   <time name="total">   11.27   11.30</time>
   <energy>
    <i name="e_fr_energy">   -228.97372780 </i>
    <i name="e_wo_entrp">   -228.97372780 </i>
    <i name="e_0_energy">   -228.97372780 </i>
   </energy>
  </scstep>
  <scstep>
   <time name="dav">    9.37    9.40</time>
   <time name="total">   10.52   10.58</time>
   <energy>
    <i name="e_fr_energy">   -228.97372778 </i>
    <i name="e_wo_entrp">   -228.97372778 </i>
    <i name="e_0_energy">   -228.97372778 </i>
   </energy>
  </scstep>
  <scstep>
   <time name="dav">    8.71    8.74</time>
   <time name="total">    9.86    9.90</time>
   <energy>
    <i name="e_fr_energy">   -228.97372776 </i>
    <i name="e_wo_entrp">   -228.97372776 </i>
    <i name="e_0_energy">   -228.97372776 </i>
   </energy>
  </scstep>
  <scstep>
   <time name="dav">    7.38    7.38</time>
   <time name="total">    8.53    8.54</time>
   <energy>
    <i name="e_fr_energy">   -228.97372774 </i>
    <i name="e_wo_entrp">   -228.97372774 </i>
    <i name="e_0_energy">   -228.97372774 </i>
   </energy>
  </scstep>
  <scstep>
   <time name="dav">    7.40    7.41</time>
   <time name="total">    7.75    7.76</time>
   <energy>
    <i name="alphaZ">    193.71496995 </i>
    <i name="ewald">  -4795.86206430 </i>
    <i name="hartreedc">  -1437.58285376 </i>
    <i name="XCdc">    243.54945060 </i>
    <i name="pawpsdc">   3128.30042561 </i>
    <i name="pawaedc">  -2944.44229405 </i>
    <i name="eentropy">      0.00000000 </i>
    <i name="bandstr">    -86.00403380 </i>
    <i name="atom">   5469.35267200 </i>
    <i name="e_fr_energy">   -228.97372773 </i>
    <i name="e_wo_entrp">   -228.97372773 </i>
    <i name="e_0_energy">   -228.97372773 </i>
   </energy>
  </scstep>
  <structure>
   <crystal>
    <varray name="basis" >
     <v>       7.69087699       0.00000000       0.00000000 </v>
     <v>      -3.84543850       6.76192371       0.00000000 </v>
     <v>       0.00000000       0.00000000       5.65907773 </v>
    </varray>
    <i name="volume">    294.30103617 </i>
    <varray name="rec_basis" >
     <v>       0.13002418       0.07394345       0.00000000 </v>
     <v>       0.00000000       0.14788691       0.00000000 </v>
     <v>       0.00000000       0.00000000       0.17670724 </v>
    </varray>
   </crystal>
   <varray name="positions" >
    <v>       0.74655031       0.83273361       0.04910018 </v>
    <v>       0.16726639       0.91381670       0.04910018 </v>
    <v>       0.08618330       0.25344969       0.04910018 </v>
    <v>       0.48787659       0.91757862       0.34091057 </v>
    <v>       0.42970202       0.51212341       0.34091057 </v>
    <v>       0.08242138       0.57029798       0.34091057 </v>
    <v>       0.83273361       0.74655031       0.54910018 </v>
    <v>       0.91381670       0.16726639       0.54910018 </v>
    <v>       0.25344969       0.08618330       0.54910018 </v>
    <v>       0.91757862       0.48787659       0.84091057 </v>
    <v>       0.51212341       0.42970202       0.84091057 </v>
    <v>       0.57029798       0.08242138       0.84091057 </v>
    <v>       0.00000000       0.00000000       0.04841213 </v>
    <v>       0.34454378       0.39000553       0.06813357 </v>
    <v>       0.60999447       0.95453825       0.06813357 </v>
    <v>       0.04546175       0.65545622       0.06813357 </v>
    <v>       0.68117069       0.68546246       0.30301109 </v>
    <v>       0.00429178       0.31882931       0.30301109 </v>
    <v>       0.31453754       0.99570822       0.30301109 </v>
    <v>       0.33333333       0.66666667       0.39654168 </v>
    <v>       0.00000000       0.00000000       0.54841213 </v>
    <v>       0.39000553       0.34454378       0.56813357 </v>
    <v>       0.95453825       0.60999447       0.56813357 </v>
    <v>       0.65545622       0.04546175       0.56813357 </v>
    <v>       0.68546246       0.68117069       0.80301109 </v>
    <v>       0.31882931       0.00429178       0.80301109 </v>
    <v>       0.99570822       0.31453754       0.80301109 </v>
    <v>       0.66666667       0.33333333       0.89654168 </v>
   </varray>
  </structure>
  <varray name="forces" >
   <v>       0.08037172      -0.29186946      -0.04670090 </v>
   <v>       0.20688913      -0.20731795      -0.00518326 </v>
   <v>      -0.14377721      -0.16003304       0.03106781 </v>
   <v>       0.25480964      -0.13696385       0.05561546 </v>
   <v>       0.07768580      -0.29709872      -0.01902803 </v>
   <v>      -0.24147848      -0.20002276      -0.14610952 </v>
   <v>      -0.14377721       0.16003304       0.03106781 </v>
   <v>       0.08037172       0.29186946      -0.04670090 </v>
   <v>       0.20688913       0.20731795      -0.00518326 </v>
   <v>       0.07768580       0.29709872      -0.01902803 </v>
   <v>      -0.24147848       0.20002276      -0.14610952 </v>
   <v>       0.25480964       0.13696385       0.05561546 </v>
   <v>      -0.18592731       0.21242768       0.00047292 </v>
   <v>       0.13074085       0.10614601       0.11583125 </v>
   <v>      -0.18258569       0.10986196       0.02216759 </v>
   <v>      -0.00067614       0.04874668      -0.05701132 </v>
   <v>       0.18635067       0.13370853      -0.14223804 </v>
   <v>      -0.10345751       0.00413574       0.10595580 </v>
   <v>      -0.18277907       0.11715594      -0.04215234 </v>
   <v>       0.10383360       0.25410728       0.12731258 </v>
   <v>      -0.18592731      -0.21242768       0.00047292 </v>
   <v>      -0.00067614      -0.04874668      -0.05701132 </v>
   <v>       0.13074085      -0.10614601       0.11583125 </v>
   <v>      -0.18258569      -0.10986196       0.02216759 </v>
   <v>      -0.10345751      -0.00413574       0.10595580 </v>
   <v>      -0.18277907      -0.11715594      -0.04215234 </v>
   <v>       0.18635067      -0.13370853      -0.14223804 </v>
   <v>       0.10383360      -0.25410728       0.12731258 </v>
  </varray>
  <varray name="stress" >
   <v>      79.72925712       0.00000000      -2.02142354 </v>
   <v>       0.00000000      18.95027527       0.00000000 </v>
   <v>      -2.02142357       0.00000000      15.12139867 </v>
  </varray>
  <energy>
   <i name="e_fr_energy">   -228.97372773 </i>
   <i name="e_wo_entrp">   -228.97372773 </i>
   <i name="e_0_energy">      0.00000000 </i>
  </energy>
  <kpoints>
   <generation param="Monkhorst-Pack">
    <v type="int" name="divisions">       4        4        4 </v>
    <v name="usershift">      0.50000000       0.50000000       0.00000000 </v>
    <v name="genvec1">      0.25000000       0.00000000       0.00000000 </v>
    <v name="genvec2">      0.00000000       0.25000000       0.00000000 </v>
    <v name="genvec3">      0.00000000       0.00000000       0.25000000 </v>
    <v name="shift">      0.00000000       0.00000000       0.50000000 </v>
   </generation>
   <varray name="kpointlist" >
    <v>       0.00000000       0.00000000       0.12500000 </v>
    <v>       0.25000000       0.00000000       0.12500000 </v>
    <v>       0.50000000       0.00000000       0.12500000 </v>
    <v>      -0.25000000       0.00000000       0.12500000 </v>
    <v>       0.00000000       0.25000000       0.12500000 </v>
    <v>       0.25000000       0.25000000       0.12500000 </v>
    <v>       0.50000000       0.25000000       0.12500000 </v>
    <v>       0.00000000       0.50000000       0.12500000 </v>
    <v>      -0.25000000       0.50000000       0.12500000 </v>
    <v>       0.50000000      -0.25000000       0.12500000 </v>
    <v>       0.00000000       0.00000000       0.37500000 </v>
    <v>       0.25000000       0.00000000       0.37500000 </v>
    <v>       0.50000000       0.00000000       0.37500000 </v>
    <v>      -0.25000000       0.00000000       0.37500000 </v>
    <v>       0.00000000       0.25000000       0.37500000 </v>
    <v>       0.25000000       0.25000000       0.37500000 </v>
    <v>       0.50000000       0.25000000       0.37500000 </v>
    <v>       0.00000000       0.50000000       0.37500000 </v>
    <v>      -0.25000000       0.50000000       0.37500000 </v>
    <v>       0.50000000      -0.25000000       0.37500000 </v>
   </varray>
   <varray name="weights" >
    <v>       0.03125000 </v>
    <v>       0.06250000 </v>
    <v>       0.06250000 </v>
    <v>       0.06250000 </v>
    <v>       0.06250000 </v>
    <v>       0.06250000 </v>
    <v>       0.03125000 </v>
    <v>       0.03125000 </v>
    <v>       0.06250000 </v>
    <v>       0.03125000 </v>
    <v>       0.03125000 </v>
    <v>       0.06250000 </v>
    <v>       0.06250000 </v>
    <v>       0.06250000 </v>
    <v>       0.06250000 </v>
    <v>       0.06250000 </v>
    <v>       0.03125000 </v>
    <v>       0.03125000 </v>
    <v>       0.06250000 </v>
    <v>       0.03125000 </v>
   </varray>
  </kpoints>
  <time name="totalsc">  185.55  190.97</time>
 </calculation>
 <calculation>
  <scstep>
   <time name="dav">    9.66    9.67</time>
   <time name="total">   10.84   10.88</time>
   <energy>
    <i name="alphaZ">    187.98940433 </i>
    <i name="ewald">  -4748.27501913 </i>
    <i name="hartreedc">  -1423.16954003 </i>
    <i name="XCdc">    239.36227825 </i>
    <i name="pawpsdc">   3128.30070994 </i>
    <i name="pawaedc">  -2944.44258135 </i>
    <i name="eentropy">      0.00000000 </i>
    <i name="bandstr">   -138.40911851 </i>
    <i name="atom">   5469.35267200 </i>
    <i name="e_fr_energy">   -229.29119450 </i>
    <i name="e_wo_entrp">   -229.29119450 </i>
    <i name="e_0_energy">   -229.29119450 </i>
   </energy>
  </scstep>
  <scstep>
   <time name="dav">    9.74    9.74</time>
   <time name="total">   10.91   10.92</time>
   <energy>
    <i name="e_fr_energy">   -229.01866705 </i>
    <i name="e_wo_entrp">   -229.01866705 </i>
    <i name="e_0_energy">   -229.01866705 </i>
   </energy>
  </scstep>
  <scstep>
   <time name="dav">    9.79    9.79</time>
   <time name="total">   10.96   10.99</time>
   <energy>
    <i name="e_fr_energy">   -228.98763847 </i>
    <i name="e_wo_entrp">   -228.98763847 </i>
    <i name="e_0_energy">   -228.98763847 </i>
   </energy>
  </scstep>
  <scstep>
   <time name="dav">    9.79    9.79</time>
   <time name="total">   10.96   10.97</time>
   <energy>
    <i name="e_fr_energy">   -228.98178218 </i>
    <i name="e_wo_entrp">   -228.98178218 </i>
    <i name="e_0_energy">   -228.98178218 </i>
   </energy>
  </scstep>
  <scstep>
   <time name="dav">    9.77    9.77</time>
   <time name="total">   10.94   10.95</time>
   <energy>
    <i name="e_fr_energy">   -228.97981961 </i>
    <i name="e_wo_entrp">   -228.97981961 </i>
    <i name="e_0_energy">   -228.97981961 </i>
   </energy>
  </scstep>
  <scstep>
   <time name="dav">    9.80    9.80</time>
   <time name="total">   10.97   10.98</time>
   <energy>
    <i name="e_fr_energy">   -228.97980833 </i>
    <i name="e_wo_entrp">   -228.97980833 </i>
    <i name="e_0_energy">   -228.97980833 </i>
   </energy>
  </scstep>
  <scstep>
   <time name="dav">   10.25   10.30</time>
   <time name="total">   11.38   14.29</time>
   <energy>
    <i name="e_fr_energy">   -228.97977549 </i>
    <i name="e_wo_entrp">   -228.97977549 </i>
    <i name="e_0_energy">   -228.97977549 </i>
   </energy>
  </scstep>
  <scstep>
   <time name="dav">   10.83   10.88</time>
   <time name="total">   12.00   12.06</time>
   <energy>
    <i name="e_fr_energy">   -228.97976444 </i>
    <i name="e_wo_entrp">   -228.97976444 </i>
    <i name="e_0_energy">   -228.97976444 </i>
   </energy>
  </scstep>
  <scstep>
   <time name="dav">    9.85    9.85</time>
   <time name="total">   11.02   11.03</time>
   <energy>
    <i name="e_fr_energy">   -228.97976477 </i>
    <i name="e_wo_entrp">   -228.97976477 </i>
    <i name="e_0_energy">   -228.97976477 </i>
   </energy>
  </scstep>
  <scstep>
   <time name="dav">   10.16   10.17</time>
   <time name="total">   11.32   11.33</time>
   <energy>
    <i name="e_fr_energy">   -228.97976531 </i>
    <i name="e_wo_entrp">   -228.97976531 </i>
    <i name="e_0_energy">   -228.97976531 </i>
   </energy>
  </scstep>
  <scstep>
   <time name="dav">    9.39    9.40</time>
   <time name="total">   10.46   10.51</time>
   <energy>
    <i name="e_fr_energy">   -228.97976526 </i>
    <i name="e_wo_entrp">   -228.97976526 </i>
    <i name="e_0_energy">   -228.97976526 </i>
   </energy>
  </scstep>
  <scstep>
   <time name="dav">    9.37    9.38</time>
   <time name="total">   10.49   10.50</time>
   <energy>
    <i name="e_fr_energy">   -228.97976536 </i>
    <i name="e_wo_entrp">   -228.97976536 </i>
    <i name="e_0_energy">   -228.97976536 </i>
   </energy>
  </scstep>
  <scstep>
   <time name="dav">    7.60    7.60</time>
   <time name="total">    8.72    8.73</time>
   <energy>
    <i name="e_fr_energy">   -228.97976541 </i>
    <i name="e_wo_entrp">   -228.97976541 </i>
    <i name="e_0_energy">   -228.97976541 </i>
   </energy>
  </scstep>
  <scstep>
   <time name="dav">    7.03    7.03</time>
   <time name="total">    8.15    8.16</time>
   <energy>
    <i name="e_fr_energy">   -228.97976544 </i>
    <i name="e_wo_entrp">   -228.97976544 </i>
    <i name="e_0_energy">   -228.97976544 </i>
   </energy>
  </scstep>
  <scstep>
   <time name="dav">    7.04    7.04</time>
   <time name="total">    7.39    7.40</time>
   <energy>
    <i name="alphaZ">    187.98940433 </i>
    <i name="ewald">  -4748.27501913 </i>
    <i name="hartreedc">  -1448.50228014 </i>
    <i name="XCdc">    240.90018601 </i>
    <i name="pawpsdc">   3077.62547107 </i>
    <i name="pawaedc">  -2893.38095941 </i>
    <i name="eentropy">      0.00000000 </i>
    <i name="bandstr">   -114.68924016 </i>
    <i name="atom">   5469.35267200 </i>
    <i name="e_fr_energy">   -228.97976544 </i>
    <i name="e_wo_entrp">   -228.97976544 </i>
    <i name="e_0_energy">   -228.97976544 </i>
   </energy>
  </scstep>
  <structure>
   <crystal>
    <varray name="basis" >
     <v>       7.80799694       0.00000000       0.00000000 </v>
     <v>      -3.90399847       6.86335256       0.00000000 </v>
     <v>       0.00000000       0.00000000       5.65907773 </v>
    </varray>
    <i name="volume">    303.26451951 </i>
    <varray name="rec_basis" >
     <v>       0.12807382       0.07285069       0.00000000 </v>
     <v>       0.00000000       0.14570139       0.00000000 </v>
     <v>       0.00000000       0.00000000       0.17670724 </v>
    </varray>
   </crystal>
   <varray name="positions" >
    <v>       0.74655031       0.83273361       0.04910018 </v>
    <v>       0.16726639       0.91381670       0.04910018 </v>
    <v>       0.08618330       0.25344969       0.04910018 </v>
    <v>       0.48787659       0.91757862       0.34091057 </v>
    <v>       0.42970202       0.51212341       0.34091057 </v>
    <v>       0.08242138       0.57029798       0.34091057 </v>
    <v>       0.83273361       0.74655031       0.54910018 </v>
    <v>       0.91381670       0.16726639       0.54910018 </v>
    <v>       0.25344969       0.08618330       0.54910018 </v>
    <v>       0.91757862       0.48787659       0.84091057 </v>
    <v>       0.51212341       0.42970202       0.84091057 </v>
    <v>       0.57029798       0.08242138       0.84091057 </v>
    <v>       0.00000000       0.00000000       0.04841213 </v>
    <v>       0.34454378       0.39000553       0.06813357 </v>
    <v>       0.60999447       0.95453825       0.06813357 </v>
    <v>       0.04546175       0.65545622       0.06813357 </v>
    <v>       0.68117069       0.68546246       0.30301109 </v>
    <v>       0.00429178       0.31882931       0.30301109 </v>
    <v>       0.31453754       0.99570822       0.30301109 </v>
    <v>       0.33333333       0.66666667       0.39654168 </v>
    <v>       0.00000000       0.00000000       0.54841213 </v>
    <v>       0.39000553       0.34454378       0.56813357 </v>
    <v>       0.95453825       0.60999447       0.56813357 </v>
    <v>       0.65545622       0.04546175       0.56813357 </v>
    <v>       0.68546246       0.68117069       0.80301109 </v>
    <v>       0.31882931       0.00429178       0.80301109 </v>
    <v>       0.99570822       0.31453754       0.80301109 </v>
    <v>       0.66666667       0.33333333       0.89654168 </v>
   </varray>
  </structure>
  <varray name="forces" >
   <v>       0.06207456      -0.02800925      -0.03128898 </v>
   <v>      -0.03504721      -0.28246615       0.00677120 </v>
   <v>       0.07359976      -0.22908130       0.04263030 </v>
   <v>      -0.02217039      -0.33067175       0.10985958 </v>
   <v>      -0.01183423       0.05701683       0.04743322 </v>
   <v>       0.10679158      -0.25030164      -0.06520922 </v>
   <v>       0.07359976       0.22908130       0.04263030 </v>
   <v>       0.06207456       0.02800925      -0.03128898 </v>
   <v>      -0.03504721       0.28246615       0.00677120 </v>
   <v>      -0.01183423      -0.05701683       0.04743322 </v>
   <v>       0.10679158       0.25030164      -0.06520922 </v>
   <v>      -0.02217039       0.33067175       0.10985958 </v>
   <v>      -0.15307406       0.15972772      -0.00072910 </v>
   <v>      -0.04234488      -0.00756455       0.05822062 </v>
   <v>       0.01011593       0.00892950      -0.02648677 </v>
   <v>      -0.01018613       0.20888158      -0.09798831 </v>
   <v>      -0.07907720       0.05010584      -0.08497309 </v>
   <v>      -0.03034953       0.23727693       0.14286264 </v>
   <v>       0.04360745      -0.07944392       0.00959296 </v>
   <v>       0.08789435       0.20143776      -0.11069505 </v>
   <v>      -0.15307406      -0.15972772      -0.00072910 </v>
   <v>      -0.01018613      -0.20888158      -0.09798831 </v>
   <v>      -0.04234488       0.00756455       0.05822062 </v>
   <v>       0.01011593      -0.00892950      -0.02648677 </v>
   <v>      -0.03034953      -0.23727693       0.14286264 </v>
   <v>       0.04360745       0.07944392       0.00959296 </v>
   <v>      -0.07907720      -0.05010584      -0.08497309 </v>
   <v>       0.08789435      -0.20143776      -0.11069505 </v>
  </varray>
  <varray name="stress" >
   <v>     -17.11449464       0.00000000      -1.81275168 </v>
   <v>       0.00000000     -72.90826263       0.00000000 </v>
   <v>      -1.81275170       0.00000000     -13.72120716 </v>
  </varray>
  <energy>
   <i name="e_fr_energy">   -228.97976544 </i>
   <i name="e_wo_entrp">   -228.97976544 </i>
   <i name="e_0_energy">      0.00000000 </i>
  </energy>
  <kpoints>
   <generation param="Monkhorst-Pack">
    <v type="int" name="divisions">       4        4        4 </v>
    <v name="usershift">      0.50000000       0.50000000       0.00000000 </v>
    <v name="genvec1">      0.25000000       0.00000000       0.00000000 </v>
    <v name="genvec2">      0.00000000       0.25000000       0.00000000 </v>
    <v name="genvec3">      0.00000000       0.00000000       0.25000000 </v>
    <v name="shift">      0.00000000       0.00000000       0.50000000 </v>
   </generation>
   <varray name="kpointlist" >
    <v>       0.00000000       0.00000000       0.12500000 </v>
    <v>       0.25000000       0.00000000       0.12500000 </v>
    <v>       0.50000000       0.00000000       0.12500000 </v>
    <v>      -0.25000000       0.00000000       0.12500000 </v>
    <v>       0.00000000       0.25000000       0.12500000 </v>
    <v>       0.25000000       0.25000000       0.12500000 </v>
    <v>       0.50000000       0.25000000       0.12500000 </v>
    <v>       0.00000000       0.50000000       0.12500000 </v>
    <v>      -0.25000000       0.50000000       0.12500000 </v>
    <v>       0.50000000      -0.25000000       0.12500000 </v>
    <v>       0.00000000       0.00000000       0.37500000 </v>
    <v>       0.25000000       0.00000000       0.37500000 </v>
    <v>       0.50000000       0.00000000       0.37500000 </v>
    <v>      -0.25000000       0.00000000       0.37500000 </v>
    <v>       0.00000000       0.25000000       0.37500000 </v>
    <v>       0.25000000       0.25000000       0.37500000 </v>
    <v>       0.50000000       0.25000000       0.37500000 </v>
    <v>       0.00000000       0.50000000       0.37500000 </v>
    <v>      -0.25000000       0.50000000       0.37500000 </v>
    <v>       0.50000000      -0.25000000       0.37500000 </v>
   </varray>
   <varray name="weights" >
    <v>       0.03125000 </v>
    <v>       0.06250000 </v>
    <v>       0.06250000 </v>
    <v>       0.06250000 </v>
    <v>       0.06250000 </v>
    <v>       0.06250000 </v>
    <v>       0.03125000 </v>
    <v>       0.03125000 </v>
    <v>       0.06250000 </v>
    <v>       0.03125000 </v>
    <v>       0.03125000 </v>
    <v>       0.06250000 </v>
    <v>       0.06250000 </v>
    <v>       0.06250000 </v>
    <v>       0.06250000 </v>
    <v>       0.06250000 </v>
    <v>       0.03125000 </v>
    <v>       0.03125000 </v>
    <v>       0.06250000 </v>
    <v>       0.03125000 </v>
   </varray>
  </kpoints>
  <time name="totalsc">  172.05  175.34</time>
 </calculation>
 <calculation>
  <scstep>
   <time name="dav">    9.29    9.30</time>
   <time name="total">   10.45   10.48</time>
   <energy>
    <i name="alphaZ">    193.71496995 </i>
    <i name="ewald">  -4795.86209045 </i>
    <i name="hartreedc">  -1462.72651781 </i>
    <i name="XCdc">    245.09150892 </i>
    <i name="pawpsdc">   3077.62520680 </i>
    <i name="pawaedc">  -2893.38069160 </i>
    <i name="eentropy">      0.00000000 </i>
    <i name="bandstr">    -63.26612551 </i>
    <i name="atom">   5469.35267200 </i>
    <i name="e_fr_energy">   -229.45106770 </i>
    <i name="e_wo_entrp">   -229.45106770 </i>
    <i name="e_0_energy">   -229.45106770 </i>
   </energy>
  </scstep>
  <scstep>
   <time name="dav">    9.49    9.50</time>
   <time name="total">   10.64   10.65</time>
   <energy>
    <i name="e_fr_energy">   -229.06959162 </i>
    <i name="e_wo_entrp">   -229.06959162 </i>
    <i name="e_0_energy">   -229.06959162 </i>
   </energy>
  </scstep>
  <scstep>
   <time name="dav">    9.48    9.53</time>
   <time name="total">   10.62   12.36</time>
   <energy>
    <i name="e_fr_energy">   -228.98808613 </i>
    <i name="e_wo_entrp">   -228.98808613 </i>
    <i name="e_0_energy">   -228.98808613 </i>
   </energy>
  </scstep>
  <scstep>
   <time name="dav">    9.54    9.59</time>
   <time name="total">   10.68   10.73</time>
   <energy>
    <i name="e_fr_energy">   -228.97679569 </i>
    <i name="e_wo_entrp">   -228.97679569 </i>
    <i name="e_0_energy">   -228.97679569 </i>
   </energy>
  </scstep>
  <scstep>
   <time name="dav">   10.06   10.11</time>
   <time name="total">   11.19   11.27</time>
   <energy>
    <i name="e_fr_energy">   -228.97389720 </i>
    <i name="e_wo_entrp">   -228.97389720 </i>
    <i name="e_0_energy">   -228.97389720 </i>
   </energy>
  </scstep>
  <scstep>
   <time name="dav">    9.46    9.50</time>
   <time name="total">   10.59   10.65</time>
   <energy>
    <i name="e_fr_energy">   -228.97384810 </i>
    <i name="e_wo_entrp">   -228.97384810 </i>
    <i name="e_0_energy">   -228.97384810 </i>
   </energy>
  </scstep>
  <scstep>
   <time name="dav">    9.50    9.51</time>
   <time name="total">   10.65   10.66</time>
   <energy>
    <i name="e_fr_energy">   -228.97372922 </i>
    <i name="e_wo_entrp">   -228.97372922 </i>
    <i name="e_0_energy">   -228.97372922 </i>
   </energy>
  </scstep>
  <scstep>
   <time name="dav">    9.44    9.51</time>
   <time name="total">   10.58   13.41</time>
   <energy>
    <i name="e_fr_energy">   -228.97372414 </i>
    <i name="e_wo_entrp">   -228.97372414 </i>
    <i name="e_0_energy">   -228.97372414 </i>
   </energy>
  </scstep>
  <scstep>
   <time name="dav">    9.80    9.86</time>
   <time name="total">   10.94   11.01</time>
   <energy>
    <i name="e_fr_energy">   -228.97372652 </i>
    <i name="e_wo_entrp">   -228.97372652 </i>
    <i name="e_0_energy">   -228.97372652 </i>
   </energy>
  </scstep>
  <scstep>
   <time name="dav">   10.02   10.03</time>
   <time name="total">   11.16   11.18</time>
   <energy>
    <i name="e_fr_energy">   -228.97372697 </i>
    <i name="e_wo_entrp">   -228.97372697 </i>
    <i name="e_0_energy">   -228.97372697 </i>
   </energy>
  </scstep>
  <scstep>
   <time name="dav">    9.92    9.92</time>
   <time name="total">   11.06   11.08</time>
   <energy>
    <i name="e_fr_energy">   -228.97372699 </i>
    <i name="e_wo_entrp">   -228.97372699 </i>
    <i name="e_0_energy">   -228.97372699 </i>
   </energy>
  </scstep>
  <scstep>
   <time name="dav">    9.48    9.50</time>
   <time name="total">   10.61   10.88</time>
   <energy>
    <i name="e_fr_energy">   -228.97372703 </i>
    <i name="e_wo_entrp">   -228.97372703 </i>
    <i name="e_0_energy">   -228.97372703 </i>
   </energy>
  </scstep>
  <scstep>
   <time name="dav">    9.84    9.87</time>
   <time name="total">   10.98   11.03</time>
   <energy>
    <i name="e_fr_energy">   -228.97372698 </i>
    <i name="e_wo_entrp">   -228.97372698 </i>
    <i name="e_0_energy">   -228.97372698 </i>
   </energy>
  </scstep>
  <scstep>
   <time name="dav">    8.08    8.13</time>
   <time name="total">    9.23   10.77</time>
   <energy>
    <i name="e_fr_energy">   -228.97372693 </i>
    <i name="e_wo_entrp">   -228.97372693 </i>
    <i name="e_0_energy">   -228.97372693 </i>
   </energy>
  </scstep>
  <scstep>
   <time name="dav">    7.20    7.23</time>
   <time name="total">    7.55    7.59</time>
   <energy>
    <i name="alphaZ">    193.71496995 </i>
    <i name="ewald">  -4795.86209045 </i>
    <i name="hartreedc">  -1437.58200059 </i>
    <i name="XCdc">    243.54948249 </i>
    <i name="pawpsdc">   3128.30245230 </i>
    <i name="pawaedc">  -2944.44433544 </i>
    <i name="eentropy">      0.00000000 </i>
    <i name="bandstr">    -86.00487718 </i>
    <i name="atom">   5469.35267200 </i>
    <i name="e_fr_energy">   -228.97372693 </i>
    <i name="e_wo_entrp">   -228.97372693 </i>
    <i name="e_0_energy">   -228.97372693 </i>
   </energy>
  </scstep>
  <structure>
   <crystal>
    <varray name="basis" >
     <v>       7.80799694       0.00000000       0.00000000 </v>
     <v>      -3.90399847       6.66049485       0.00000000 </v>
     <v>       0.00000000       0.00000000       5.65907773 </v>
    </varray>
    <i name="volume">    294.30103617 </i>
    <varray name="rec_basis" >
     <v>       0.12807382       0.07506950       0.00000000 </v>
     <v>       0.00000000       0.15013899       0.00000000 </v>
     <v>       0.00000000       0.00000000       0.17670724 </v>
    </varray>
   </crystal>
   <varray name="positions" >
    <v>       0.74655031       0.83273361       0.04910018 </v>
    <v>       0.16726639       0.91381670       0.04910018 </v>
    <v>       0.08618330       0.25344969       0.04910018 </v>
    <v>       0.48787659       0.91757862       0.34091057 </v>
    <v>       0.42970202       0.51212341       0.34091057 </v>
    <v>       0.08242138       0.57029798       0.34091057 </v>
    <v>       0.83273361       0.74655031       0.54910018 </v>
    <v>       0.91381670       0.16726639       0.54910018 </v>
    <v>       0.25344969       0.08618330       0.54910018 </v>
    <v>       0.91757862       0.48787659       0.84091057 </v>
    <v>       0.51212341       0.42970202       0.84091057 </v>
    <v>       0.57029798       0.08242138       0.84091057 </v>
    <v>       0.00000000       0.00000000       0.04841213 </v>
    <v>       0.34454378       0.39000553       0.06813357 </v>
    <v>       0.60999447       0.95453825       0.06813357 </v>
    <v>       0.04546175       0.65545622       0.06813357 </v>
    <v>       0.68117069       0.68546246       0.30301109 </v>
    <v>       0.00429178       0.31882931       0.30301109 </v>
    <v>       0.31453754       0.99570822       0.30301109 </v>
    <v>       0.33333333       0.66666667       0.39654168 </v>
    <v>       0.00000000       0.00000000       0.54841213 </v>
    <v>       0.39000553       0.34454378       0.56813357 </v>
    <v>       0.95453825       0.60999447       0.56813357 </v>
    <v>       0.65545622       0.04546175       0.56813357 </v>
    <v>       0.68546246       0.68117069       0.80301109 </v>
    <v>       0.31882931       0.00429178       0.80301109 </v>
    <v>       0.99570822       0.31453754       0.80301109 </v>
    <v>       0.66666667       0.33333333       0.89654168 </v>
   </varray>
  </structure>
  <varray name="forces" >
   <v>      -0.07162547       0.02548550       0.03316294 </v>
   <v>       0.03069537       0.36045793      -0.00934674 </v>
   <v>      -0.09160850       0.30340305      -0.04462038 </v>
   <v>       0.02999322       0.40384097      -0.12729510 </v>
   <v>       0.00773406      -0.06254759      -0.05406543 </v>
   <v>      -0.12426717       0.32200769       0.07172888 </v>
   <v>      -0.09160850      -0.30340305      -0.04462038 </v>
   <v>      -0.07162547      -0.02548550       0.03316294 </v>
   <v>       0.03069537      -0.36045793      -0.00934674 </v>
   <v>       0.00773406       0.06254759      -0.05406543 </v>
   <v>      -0.12426717      -0.32200769       0.07172888 </v>
   <v>       0.02999322      -0.40384097      -0.12729510 </v>
   <v>       0.17852182      -0.22666994       0.00047523 </v>
   <v>       0.04643156       0.01563530      -0.06063185 </v>
   <v>      -0.01143771      -0.01389510       0.03011885 </v>
   <v>       0.01383738      -0.28005083       0.11153058 </v>
   <v>       0.09281511      -0.04332726       0.09084687 </v>
   <v>       0.04208941      -0.30433058      -0.15926444 </v>
   <v>      -0.04302890       0.08129196      -0.01002096 </v>
   <v>      -0.10015019      -0.26798878       0.12738156 </v>
   <v>       0.17852182       0.22666994       0.00047523 </v>
   <v>       0.01383738       0.28005083       0.11153058 </v>
   <v>       0.04643156      -0.01563530      -0.06063185 </v>
   <v>      -0.01143771       0.01389510       0.03011885 </v>
   <v>       0.04208941       0.30433058      -0.15926444 </v>
   <v>      -0.04302890      -0.08129196      -0.01002096 </v>
   <v>       0.09281511       0.04332726       0.09084687 </v>
   <v>      -0.10015019       0.26798878       0.12738156 </v>
  </varray>
  <varray name="stress" >
   <v>      18.95701475       0.00000000       2.00961529 </v>
   <v>       0.00000000      79.73569462       0.00000000 </v>
   <v>       2.00961527       0.00000000      15.11701067 </v>
  </varray>
  <energy>
   <i name="e_fr_energy">   -228.97372693 </i>
   <i name="e_wo_entrp">   -228.97372693 </i>
   <i name="e_0_energy">      0.00000000 </i>
  </energy>
  <kpoints>
   <generation param="Monkhorst-Pack">
    <v type="int" name="divisions">       4        4        4 </v>
    <v name="usershift">      0.50000000       0.50000000       0.00000000 </v>
    <v name="genvec1">      0.25000000       0.00000000       0.00000000 </v>
    <v name="genvec2">      0.00000000       0.25000000       0.00000000 </v>
    <v name="genvec3">      0.00000000       0.00000000       0.25000000 </v>
    <v name="shift">      0.00000000       0.00000000       0.50000000 </v>
   </generation>
   <varray name="kpointlist" >
    <v>       0.00000000       0.00000000       0.12500000 </v>
    <v>       0.25000000       0.00000000       0.12500000 </v>
    <v>       0.50000000       0.00000000       0.12500000 </v>
    <v>       0.25000000       0.25000000       0.12500000 </v>
    <v>      -0.25000000       0.50000000       0.12500000 </v>
[...]
       <r>   -2.4548    1.0000 </r>
       <r>   -2.1341    1.0000 </r>
       <r>   -2.0880    1.0000 </r>
       <r>   -1.8129    1.0000 </r>
       <r>   -1.2455    1.0000 </r>
       <r>   -1.0388    1.0000 </r>
       <r>   -0.8183    1.0000 </r>
       <r>   -0.6426    1.0000 </r>
       <r>   -0.4027    1.0000 </r>
       <r>   -0.1339    1.0000 </r>
       <r>   -0.0636    1.0000 </r>
       <r>    0.1084    1.0000 </r>
       <r>    0.1477    1.0000 </r>
       <r>    0.3304    1.0000 </r>
       <r>    0.7196    1.0000 </r>
       <r>    0.7470    1.0000 </r>
       <r>    1.1298    1.0000 </r>
       <r>    1.2581    1.0000 </r>
       <r>    1.5742    1.0000 </r>
       <r>    1.6422    1.0000 </r>
       <r>    1.7299    1.0000 </r>
       <r>    1.9761    1.0000 </r>
       <r>    1.9961    1.0000 </r>
       <r>    2.2205    1.0000 </r>
       <r>    2.2471    1.0000 </r>
       <r>    2.4140    1.0000 </r>
       <r>    2.4987    1.0000 </r>
       <r>    2.5100    1.0000 </r>
       <r>    2.7621    1.0000 </r>
       <r>    3.0328    1.0000 </r>
       <r>    3.1112    1.0000 </r>
       <r>    3.5197    1.0000 </r>
       <r>    3.5464    1.0000 </r>
       <r>    3.7442    1.0000 </r>
       <r>    4.1433    1.0000 </r>
       <r>    4.2883    1.0000 </r>
       <r>    4.4658    1.0000 </r>
       <r>    4.5477    1.0000 </r>
       <r>    4.7881    1.0000 </r>
       <r>    4.8225    1.0000 </r>
       <r>    5.0429    1.0000 </r>
       <r>    5.1045    1.0000 </r>
       <r>    5.1794    1.0000 </r>
       <r>    5.2457    1.0000 </r>
       <r>    5.3873    1.0000 </r>
       <r>    5.6849    1.0000 </r>
       <r>    5.7631    1.0000 </r>
       <r>   11.4683    0.0000 </r>
       <r>   11.4736    0.0000 </r>
       <r>   11.8358    0.0000 </r>
       <r>   11.9454    0.0000 </r>
       <r>   12.1082    0.0000 </r>
       <r>   12.2207    0.0000 </r>
       <r>   12.5843    0.0000 </r>
       <r>   12.5958    0.0000 </r>
       <r>   12.8476    0.0000 </r>
       <r>   12.8757    0.0000 </r>
       <r>   13.0074    0.0000 </r>
       <r>   13.2545    0.0000 </r>
       <r>   13.3533    0.0000 </r>
       <r>   13.5195    0.0000 </r>
       <r>   13.7716    0.0000 </r>
       <r>   13.9358    0.0000 </r>
      </set>
     </set>
    </set>
   </array>
  </eigenvalues>
  <separator name="orbital magnetization" >
   <v name="MAGDIPOLOUT">      0.00000000      0.00000000      0.00000000</v>
  </separator>
  <dos>
   <i name="efermi">      6.25192136 </i>
   <total>
    <array>
     <dimension dim="1">gridpoints</dimension>
     <dimension dim="2">spin</dimension>
     <field>energy</field>
     <field>total</field>
     <field>integrated</field>
     <set>
      <set comment="spin 1">
       <r>   -12.9023     0.0000     0.0000 </r>
       <r>   -12.8085     0.0000     0.0000 </r>
       <r>   -12.7147     0.0000     0.0000 </r>
       <r>   -12.6209     0.0000     0.0000 </r>
       <r>   -12.5272     0.0000     0.0000 </r>
       <r>   -12.4334     0.0000     0.0000 </r>
       <r>   -12.3396     0.0000     0.0000 </r>
       <r>   -12.2458     0.0000     0.0000 </r>
       <r>   -12.1520     0.0000     0.0000 </r>
       <r>   -12.0583     0.0000     0.0000 </r>
       <r>   -11.9645     0.0000     0.0000 </r>
       <r>   -11.8707     0.0000     0.0000 </r>
       <r>   -11.7769     0.0000     0.0000 </r>
       <r>   -11.6832     0.0000     0.0000 </r>
       <r>   -11.5894     0.6665     0.0625 </r>
       <r>   -11.4956     1.9616     0.2465 </r>
       <r>   -11.4018     0.0000     0.4375 </r>
       <r>   -11.3080     0.0000     0.4375 </r>
       <r>   -11.2143     4.6653     0.8750 </r>
       <r>   -11.1205     5.9962     1.4373 </r>
       <r>   -11.0267     1.9977     1.6248 </r>
       <r>   -10.9329     0.0195     1.6268 </r>
       <r>   -10.8392     5.6401     2.1557 </r>
       <r>   -10.7454     6.0611     2.7559 </r>
       <r>   -10.6516     1.9913     3.1250 </r>
       <r>   -10.5578     1.4698     3.2628 </r>
       <r>   -10.4640     9.5853     4.6523 </r>
       <r>   -10.3703     0.0480     4.6920 </r>
       <r>   -10.2765     2.0517     4.8844 </r>
       <r>   -10.1827     5.8982     5.4375 </r>
       <r>   -10.0889    10.1194     6.3865 </r>
       <r>    -9.9952     1.9966     6.6872 </r>
       <r>    -9.9014     9.9970     7.6250 </r>
       <r>    -9.8076     0.7035     7.6910 </r>
       <r>    -9.7138     8.5244     8.5510 </r>
       <r>    -9.6200     5.3024     9.0606 </r>
       <r>    -9.5263    10.6745    10.0635 </r>
       <r>    -9.4325     8.1043    10.8236 </r>
       <r>    -9.3387     6.9525    11.5895 </r>
       <r>    -9.2449     7.9609    12.4970 </r>
       <r>    -9.1511     3.9793    12.8732 </r>
       <r>    -9.0574    14.8162    14.2645 </r>
       <r>    -8.9636    11.3257    15.3747 </r>
       <r>    -8.8698     3.9467    15.8076 </r>
       <r>    -8.7760     7.9976    16.6875 </r>
       <r>    -8.6823     8.3836    17.4737 </r>
       <r>    -8.5885     9.5875    18.7118 </r>
       <r>    -8.4947    12.9256    20.0871 </r>
       <r>    -8.4009     7.4975    21.0204 </r>
       <r>    -8.3071     9.8002    21.9816 </r>
       <r>    -8.2134    15.5355    23.6446 </r>
       <r>    -8.1196    10.5691    24.8036 </r>
       <r>    -8.0258    25.0094    27.4706 </r>
       <r>    -7.9320    25.6180    30.4094 </r>
       <r>    -7.8383    15.3261    31.9373 </r>
       <r>    -7.7445     0.6665    32.0000 </r>
       <r>    -7.6507     0.0000    32.0000 </r>
       <r>    -7.5569     0.0000    32.0000 </r>
       <r>    -7.4631     0.0000    32.0000 </r>
       <r>    -7.3694     0.0000    32.0000 </r>
       <r>    -7.2756     0.0000    32.0000 </r>
       <r>    -7.1818     0.0000    32.0000 </r>
       <r>    -7.0880     0.0000    32.0000 </r>
       <r>    -6.9942     0.0000    32.0000 </r>
       <r>    -6.9005     0.0000    32.0000 </r>
       <r>    -6.8067     0.0000    32.0000 </r>
       <r>    -6.7129     0.0000    32.0000 </r>
       <r>    -6.6191     0.0000    32.0000 </r>
       <r>    -6.5254     0.0000    32.0000 </r>
       <r>    -6.4316     0.0000    32.0000 </r>
       <r>    -6.3378     0.0000    32.0000 </r>
       <r>    -6.2440     0.0000    32.0000 </r>
       <r>    -6.1502     0.0000    32.0000 </r>
       <r>    -6.0565     0.0000    32.0000 </r>
       <r>    -5.9627     0.0000    32.0000 </r>
       <r>    -5.8689     0.0000    32.0000 </r>
       <r>    -5.7751     0.0000    32.0000 </r>
       <r>    -5.6814     0.0000    32.0000 </r>
       <r>    -5.5876     0.0000    32.0000 </r>
       <r>    -5.4938     0.0000    32.0000 </r>
       <r>    -5.4000     0.0000    32.0000 </r>
       <r>    -5.3062     0.0000    32.0000 </r>
       <r>    -5.2125     0.0000    32.0000 </r>
       <r>    -5.1187     0.0000    32.0000 </r>
       <r>    -5.0249     0.0000    32.0000 </r>
       <r>    -4.9311     0.0000    32.0000 </r>
       <r>    -4.8373     0.0000    32.0000 </r>
       <r>    -4.7436     0.0000    32.0000 </r>
       <r>    -4.6498     0.0000    32.0000 </r>
       <r>    -4.5560     0.0000    32.0000 </r>
       <r>    -4.4622     0.0000    32.0000 </r>
       <r>    -4.3685     0.0000    32.0000 </r>
       <r>    -4.2747     0.0000    32.0000 </r>
       <r>    -4.1809     0.0000    32.0000 </r>
       <r>    -4.0871     0.0000    32.0000 </r>
       <r>    -3.9933     0.0000    32.0000 </r>
       <r>    -3.8996     0.0000    32.0000 </r>
       <r>    -3.8058     0.0000    32.0000 </r>
       <r>    -3.7120     0.0000    32.0000 </r>
       <r>    -3.6182     0.0000    32.0000 </r>
       <r>    -3.5245     0.0000    32.0000 </r>
       <r>    -3.4307     0.0000    32.0000 </r>
       <r>    -3.3369     0.0000    32.0000 </r>
       <r>    -3.2431     0.0000    32.0000 </r>
       <r>    -3.1493     0.0000    32.0000 </r>
       <r>    -3.0556     0.0000    32.0000 </r>
       <r>    -2.9618     1.9825    32.1859 </r>
       <r>    -2.8680     7.2569    32.8680 </r>
       <r>    -2.7742     8.0003    33.6252 </r>
       <r>    -2.6805     1.9952    33.8125 </r>
       <r>    -2.5867     3.0225    34.0959 </r>
       <r>    -2.4929     6.6161    35.1829 </r>
       <r>    -2.3991     8.3751    36.0393 </r>
       <r>    -2.3053     9.8492    37.1111 </r>
       <r>    -2.2116     6.1441    37.7012 </r>
       <r>    -2.1178     5.7418    38.4135 </r>
       <r>    -2.0240    13.0712    39.6633 </r>
       <r>    -1.9302    10.0725    40.6321 </r>
       <r>    -1.8364     4.0095    41.1885 </r>
       <r>    -1.7427     7.3361    41.8769 </r>
       <r>    -1.6489     8.0141    42.6285 </r>
       <r>    -1.5551    13.9552    43.9372 </r>
       <r>    -1.4613     0.6677    44.0001 </r>
       <r>    -1.3676     4.4788    44.5450 </r>
       <r>    -1.2738     5.5068    45.0793 </r>
       <r>    -1.1800    10.7422    46.1949 </r>
       <r>    -1.0862     2.6319    46.6218 </r>
       <r>    -0.9924     8.8831    47.4580 </r>
       <r>    -0.8987     4.9630    48.0904 </r>
       <r>    -0.8049     1.9413    48.3071 </r>
       <r>    -0.7111     9.9961    49.2499 </r>
       <r>    -0.6173     8.8858    50.0833 </r>
       <r>    -0.5236     0.0000    50.1875 </r>
       <r>    -0.4298     0.0568    50.1928 </r>
       <r>    -0.3360     8.5982    50.9992 </r>
       <r>    -0.2422    10.0388    51.9414 </r>
       <r>    -0.1484    10.7446    52.9503 </r>
       <r>    -0.0547    14.1341    54.3979 </r>
       <r>     0.0391     3.9225    55.1178 </r>
       <r>     0.1329     9.9914    56.3745 </r>
       <r>     0.2267    12.2952    57.7229 </r>
       <r>     0.3205    11.3791    59.0671 </r>
       <r>     0.4142     9.9737    60.1854 </r>
       <r>     0.5080     0.7083    60.2539 </r>
       <r>     0.6018     7.0894    61.1648 </r>
       <r>     0.6956     6.6610    62.5626 </r>
       <r>     0.7893    15.8387    64.0479 </r>
       <r>     0.8831     1.9747    64.2477 </r>
       <r>     0.9769    12.1836    65.3926 </r>
       <r>     1.0707     1.9993    65.6875 </r>
       <r>     1.1645    12.4828    66.8581 </r>
       <r>     1.2582    12.3134    68.0922 </r>
       <r>     1.3520     2.6343    68.9970 </r>
       <r>     1.4458     6.8974    69.9608 </r>
       <r>     1.5396    14.5721    71.6791 </r>
       <r>     1.6333     9.9724    72.9358 </r>
       <r>     1.7271    12.7886    74.5124 </r>
       <r>     1.8209    10.5298    75.7376 </r>
       <r>     1.9147     7.3370    76.5630 </r>
       <r>     2.0085    20.1071    78.4495 </r>
       <r>     2.1022    13.6254    80.2778 </r>
       <r>     2.1960     7.5173    81.2050 </r>
       <r>     2.2898    17.0379    83.0354 </r>
       <r>     2.3836    11.7384    84.4758 </r>
       <r>     2.4773    16.1762    86.2045 </r>
       <r>     2.5711    10.6573    87.3796 </r>
       <r>     2.6649     9.7308    88.5375 </r>
       <r>     2.7587    13.0546    89.9163 </r>
       <r>     2.8525     4.6652    90.6250 </r>
       <r>     2.9462    17.5856    92.2741 </r>
       <r>     3.0400     5.1573    92.9211 </r>
       <r>     3.1338    14.5162    94.3614 </r>
       <r>     3.2276    10.7728    95.8228 </r>
       <r>     3.3214     0.0000    96.1875 </r>
       <r>     3.4151     7.3173    96.8737 </r>
       <r>     3.5089     6.4967    97.4842 </r>
       <r>     3.6027    11.7371    98.7883 </r>
       <r>     3.6965     0.0000    98.8125 </r>
       <r>     3.7902     4.3607    99.2214 </r>
       <r>     3.8840     6.5723    99.9922 </r>
       <r>     3.9778     0.7509   100.5704 </r>
       <r>     4.0716     9.9149   101.6813 </r>
       <r>     4.1654    10.6599   103.0622 </r>
       <r>     4.2591     8.1922   104.0182 </r>
       <r>     4.3529    12.0893   105.2587 </r>
       <r>     4.4467     7.7308   106.1646 </r>
       <r>     4.5405    10.2685   107.3386 </r>
       <r>     4.6342     7.9738   108.3120 </r>
       <r>     4.7280    21.0331   110.2850 </r>
       <r>     4.8218    17.0981   112.1034 </r>
       <r>     4.9156    11.1498   113.6081 </r>
       <r>     5.0094     7.0599   114.3496 </r>
       <r>     5.1031    14.8610   115.7776 </r>
       <r>     5.1969    14.5973   117.6189 </r>
       <r>     5.2907    15.0194   119.8460 </r>
       <r>     5.3845    10.1483   121.2642 </r>
       <r>     5.4783     8.4273   122.5403 </r>
       <r>     5.5720     9.2667   123.7444 </r>
       <r>     5.6658     6.2178   124.3331 </r>
       <r>     5.7596    17.1890   125.9891 </r>
       <r>     5.8534     8.6598   126.9371 </r>
       <r>     5.9471     0.0000   127.0000 </r>
       <r>     6.0409     0.0000   127.0000 </r>
       <r>     6.1347     7.3818   127.6922 </r>
       <r>     6.2285     0.0000   128.0000 </r>
       <r>     6.3223     0.0000   128.0000 </r>
       <r>     6.4160     0.0000   128.0000 </r>
       <r>     6.5098     0.0000   128.0000 </r>
       <r>     6.6036     0.0000   128.0000 </r>
       <r>     6.6974     0.0000   128.0000 </r>
       <r>     6.7911     0.0000   128.0000 </r>
       <r>     6.8849     0.0000   128.0000 </r>
       <r>     6.9787     0.0000   128.0000 </r>
       <r>     7.0725     0.0000   128.0000 </r>
       <r>     7.1663     0.0000   128.0000 </r>
       <r>     7.2600     0.0000   128.0000 </r>
       <r>     7.3538     0.0000   128.0000 </r>
       <r>     7.4476     0.0000   128.0000 </r>
       <r>     7.5414     0.0000   128.0000 </r>
       <r>     7.6351     0.0000   128.0000 </r>
       <r>     7.7289     0.0000   128.0000 </r>
       <r>     7.8227     0.0000   128.0000 </r>
       <r>     7.9165     0.0000   128.0000 </r>
       <r>     8.0103     0.0000   128.0000 </r>
       <r>     8.1040     0.0000   128.0000 </r>
       <r>     8.1978     0.0000   128.0000 </r>
       <r>     8.2916     0.0000   128.0000 </r>
       <r>     8.3854     0.0000   128.0000 </r>
       <r>     8.4792     0.0000   128.0000 </r>
       <r>     8.5729     0.0000   128.0000 </r>
       <r>     8.6667     0.0000   128.0000 </r>
       <r>     8.7605     0.0000   128.0000 </r>
       <r>     8.8543     0.0000   128.0000 </r>
       <r>     8.9480     0.0000   128.0000 </r>
       <r>     9.0418     0.0000   128.0000 </r>
       <r>     9.1356     0.0000   128.0000 </r>
       <r>     9.2294     0.0000   128.0000 </r>
       <r>     9.3232     0.0000   128.0000 </r>
       <r>     9.4169     0.0000   128.0000 </r>
       <r>     9.5107     0.0000   128.0000 </r>
       <r>     9.6045     0.0000   128.0000 </r>
       <r>     9.6983     0.0000   128.0000 </r>
       <r>     9.7920     0.0000   128.0000 </r>
       <r>     9.8858     0.0000   128.0000 </r>
       <r>     9.9796     0.0000   128.0000 </r>
       <r>    10.0734     0.0000   128.0000 </r>
       <r>    10.1672     0.0000   128.0000 </r>
       <r>    10.2609     0.0000   128.0000 </r>
       <r>    10.3547     0.0000   128.0000 </r>
       <r>    10.4485     0.0000   128.0000 </r>
       <r>    10.5423     0.0000   128.0000 </r>
       <r>    10.6361     0.0000   128.0000 </r>
       <r>    10.7298     0.0000   128.0000 </r>
       <r>    10.8236     0.0000   128.0000 </r>
       <r>    10.9174     0.0000   128.0000 </r>
       <r>    11.0112     0.0576   128.0054 </r>
       <r>    11.1049     0.0001   128.1250 </r>
       <r>    11.1987     5.8930   128.6776 </r>
       <r>    11.2925     0.6692   128.7503 </r>
       <r>    11.3863     5.9642   129.3097 </r>
       <r>    11.4801     9.6168   130.2143 </r>
       <r>    11.5738    11.0303   131.4719 </r>
       <r>    11.6676     9.1435   132.6075 </r>
       <r>    11.7614    15.1563   134.1121 </r>
       <r>    11.8552     3.9966   134.6248 </r>
       <r>    11.9489    11.1842   135.6742 </r>
       <r>    12.0427     9.0269   137.1590 </r>
       <r>    12.1365    13.1852   138.4240 </r>
       <r>    12.2303     6.4923   139.8588 </r>
       <r>    12.3241    11.7888   140.9809 </r>
       <r>    12.4178    14.3073   142.9043 </r>
       <r>    12.5116    10.5619   143.9910 </r>
       <r>    12.6054    20.3742   146.0384 </r>
       <r>    12.6992     4.5627   146.7404 </r>
       <r>    12.7930     5.9963   147.4998 </r>
       <r>    12.8867     9.9800   148.4359 </r>
       <r>    12.9805    12.8384   149.8944 </r>
       <r>    13.0743    12.1435   151.5763 </r>
       <r>    13.1681     9.8034   153.0444 </r>
       <r>    13.2618    11.2858   154.2459 </r>
       <r>    13.3556     4.8696   155.1442 </r>
       <r>    13.4494    17.3197   156.9992 </r>
       <r>    13.5432     4.1987   157.5837 </r>
       <r>    13.6370     8.2911   158.4029 </r>
       <r>    13.7307     3.2377   159.1161 </r>
       <r>    13.8245     1.9994   159.7500 </r>
       <r>    13.9183     0.0132   159.7512 </r>
       <r>    14.0121     2.6526   160.0000 </r>
       <r>    14.1058     0.0000   160.0000 </r>
       <r>    14.1996     0.0000   160.0000 </r>
       <r>    14.2934     0.0000   160.0000 </r>
       <r>    14.3872     0.0000   160.0000 </r>
       <r>    14.4810     0.0000   160.0000 </r>
       <r>    14.5747     0.0000   160.0000 </r>
       <r>    14.6685     0.0000   160.0000 </r>
       <r>    14.7623     0.0000   160.0000 </r>
       <r>    14.8561     0.0000   160.0000 </r>
       <r>    14.9498     0.0000   160.0000 </r>
       <r>    15.0436     0.0000   160.0000 </r>
       <r>    15.1374     0.0000   160.0000 </r>
       <r>    15.2312     0.0000   160.0000 </r>
      </set>
     </set>
    </array>
   </total>
  </dos>
 </calculation>
 <structure name="finalpos" >
  <crystal>
   <varray name="basis" >
    <v>       7.80799694       0.00000000       0.00000000 </v>
    <v>      -3.90399847       6.76192371       0.00000000 </v>
    <v>       0.00000000       0.00000000       5.65907773 </v>
   </varray>
   <i name="volume">    298.78277784 </i>
   <varray name="rec_basis" >
    <v>       0.12807382       0.07394345       0.00000000 </v>
    <v>       0.00000000       0.14788691       0.00000000 </v>
    <v>       0.00000000       0.00000000       0.17670724 </v>
   </varray>
  </crystal>
  <varray name="positions" >
   <v>       0.74655031       0.83273361       0.04910018 </v>
   <v>       0.16726639       0.91381670       0.04910018 </v>
   <v>       0.08618330       0.25344969       0.04910018 </v>
   <v>       0.48787659       0.91757862       0.34091057 </v>
   <v>       0.42970202       0.51212341       0.34091057 </v>
   <v>       0.08242138       0.57029798       0.34091057 </v>
   <v>       0.83273361       0.74655031       0.54910018 </v>
   <v>       0.91381670       0.16726639       0.54910018 </v>
   <v>       0.25344969       0.08618330       0.54910018 </v>
   <v>       0.91757862       0.48787659       0.84091057 </v>
   <v>       0.51212341       0.42970202       0.84091057 </v>
   <v>       0.57029798       0.08242138       0.84091057 </v>
   <v>       0.00000000       0.00000000       0.04841213 </v>
   <v>       0.34454378       0.39000553       0.06813357 </v>
   <v>       0.60999447       0.95453825       0.06813357 </v>
   <v>       0.04546175       0.65545622       0.06813357 </v>
   <v>       0.68117069       0.68546246       0.30301109 </v>
   <v>       0.00429178       0.31882931       0.30301109 </v>
   <v>       0.31453754       0.99570822       0.30301109 </v>
   <v>       0.33333333       0.66666667       0.39389107 </v>
   <v>       0.00000000       0.00000000       0.54841213 </v>
   <v>       0.39000553       0.34454378       0.56813357 </v>
   <v>       0.95453825       0.60999447       0.56813357 </v>
   <v>       0.65545622       0.04546175       0.56813357 </v>
   <v>       0.68546246       0.68117069       0.80301109 </v>
   <v>       0.31882931       0.00429178       0.80301109 </v>
   <v>       0.99570822       0.31453754       0.80301109 </v>
   <v>       0.66666667       0.33333333       0.89654168 </v>
  </varray>
 </structure>
</modeling>
